      50
 Properties=species:S:1:pos:R:3:velocities:R:3:forces:R:3:local_energy:R:1:fix_atoms:S:3 Lattice="9.9905032156        0.0000000000    0.0000000000    0.0000000000    9.9905032156    0.0000000000    0.0000000000    0.0000000000    9.9905032156" temperature=4905.56257849 pressure=50068.25271718 time_step=1.0000 time=1000.000000 energy=-245.863471 energy_soap=-313.79198161  energy_2b=63.31517662 energy_3b=4.61333382 energy_core_pot=0.00000000 energy_vdw=0.00000000 energy_exp=0.00000000 energy_xps=0.00000000 virial="24.52654210          -6.94345367      3.24457628     -6.94345367      2.62119263     -2.17903965      3.24457628     -2.17903965      4.19476345" stress="-0.02459655           0.00696327     -0.00325384      0.00696327     -0.00262867      0.00218526     -0.00325384      0.00218526     -0.00420674" volume=997.153669 step=1000
 H              3.49767017       7.30854167       6.76561377       0.14057878       0.11251145      -0.00105986      -2.79002835       1.65089254       0.09123201      -2.56540954 F F F
 H              0.64049726       2.53497082       7.33926268       0.04709909       0.03362393       0.10879675      -0.17434822      -1.20096448      -1.26783118      -3.46083844 F F F
 H              4.60803076       8.87101408       5.09697345      -0.00627736       0.04304911       0.09836429      -0.23768190      -0.09287960       1.06122517      -1.42537035 F F F
 H              1.47391399       6.11843157       5.79085063       0.10515513      -0.00835768       0.14181780      -0.60056519       0.05698996       1.17082905      -1.79368922 F F F
 H              3.22263154       6.46162432       2.01985065      -0.01618239       0.02996236      -0.02070473      -1.25850888       0.91836393      -0.82023859      -2.56740432 F F F
 H              2.51560721       7.83715806       6.80974290      -0.04714907       0.00010824       0.03437699       2.60017915      -1.64767713       0.42611898      -2.46281311 F F F
 H              5.20150618       9.81238614       2.29790734       0.05789482      -0.06145059      -0.00857104       0.53608666      -0.50792238       0.02804087      -1.74036004 F F F
 H              7.44617635       8.69943798       2.17541137      -0.04860313      -0.00450501       0.02407396       0.36747159       2.13213204       0.26214512      -3.39794789 F F F
 H              1.22541594       7.85359786       8.65238792       0.15686761      -0.01450694       0.01314023       0.37993574       0.79266016       0.41226396      -3.53534910 F F F
 H              3.76817975       6.12022821       2.28443226      -0.09450323      -0.09605518       0.00175948       1.57420451      -1.06900659       0.06492107      -2.90147110 F F F
 H              7.16778338       6.40252125       9.77017154       0.01874033      -0.00523650      -0.00280814       0.13013130       2.74493177      -1.05321682      -2.42712912 F F F
 H              3.11212436       2.87903775       2.66639499       0.09736531      -0.09359214      -0.10274968       3.65012108       2.09095684      -1.03331867      -3.27186967 F F F
 H              5.56959436       8.30362974       4.20146862       0.03547261       0.01243472      -0.07392223       0.51211324      -0.03264248       0.85451687      -1.69485869 F F F
 H              3.30356322       5.91734914       4.87125479      -0.01482482      -0.00229193       0.07107377      -5.74815086      -0.57732228      -1.40224222      -2.63677474 F F F
 H              1.32281691       7.19559504       1.71002131      -0.01997432       0.03740860       0.06562576       0.27493589      -0.28668085       1.01838129      -1.68382943 F F F
 H              5.70479094       0.74626002       3.72263664       0.05878664       0.03625647      -0.09001781       1.61777311       1.86364038       1.03676013      -3.03351767 F F F
 H              6.29951479       3.81541879       4.03297422       0.08294816      -0.02189643       0.03557406      -0.59580078      -2.06177521      -0.60545036      -2.81638359 F F F
 H              6.48948818       6.98366578       2.44274139       0.03759177       0.09957462      -0.08435526      -1.72835055       1.33129917      -0.30517475      -1.94906690 F F F
 H              2.34907415       6.45823192       3.96402102      -0.04609543       0.11105948      -0.02633879      -0.94047082      -0.23441297       0.23306071      -3.64435053 F F F
 H              1.46023294       2.95675568       2.71717359       0.02347475       0.02134344      -0.05227369      -0.49397630      -1.35600554       0.63235430      -3.89903082 F F F
 H              6.66845201       4.46519642       7.23592715       0.05888922      -0.01294695       0.15688068       0.58905896      -0.31174957       0.58896194      -1.66642146 F F F
 H              0.71529805       2.86185459       9.10541907       0.04852628       0.04732404       0.01390541       0.87206830       1.26132722      -2.27917519      -2.59547635 F F F
 H              6.12555131       2.98564840       3.85556345      -0.10178215      -0.04699989      -0.03784611       0.62714883       2.04000157       0.27725609      -2.97783238 F F F
 H              5.67183879       3.98973589       5.98499300      -0.08973412      -0.07009417       0.01907498      -2.28997578       1.78227202       0.02139572      -3.18649757 F F F
 H              8.10108262       9.37151304       0.02586793      -0.10735798       0.00701786       0.06745204      -0.33392617      -1.25275538      -0.35051506      -3.77241230 F F F
 C              7.37984266       7.36009386       8.79413927       0.00624714       0.00578754       0.01911778       2.60544223      -0.63669495       1.95056228      -7.86539427 F F F
 C              9.21655147       6.61040559       3.23382606       0.00542874       0.00407337       0.00839005      -1.00193752      -0.02641644      -2.13828809      -6.77925632 F F F
 C              5.23507858       8.87660615       3.23055719       0.00298550      -0.03969917       0.02847565       3.31197526      -6.22650340      -3.37707609      -7.53746391 F F F
 C              5.02753128       6.23410805       3.80147286      -0.00923755       0.02295171       0.00437752       0.10641892       0.57466614       0.35806579      -7.44454954 F F F
 C              2.34052097       2.33325492       3.01382420       0.00743094      -0.00300640      -0.01642639      -3.24220306      -1.16020437       0.09256812      -6.84876146 F F F
 C              5.95660253       6.27473004       6.50434076       0.01816162      -0.02499204      -0.00715701       5.55804368      -2.22994854       9.04057910      -5.18299806 F F F
 C              4.94922232       0.04040978       3.69054261      -0.00800733      -0.00542318       0.03723709      -2.50144587       6.02280212       0.59622876      -6.85295962 F F F
 C              4.18488608       5.76051029       5.26651191       0.00677444       0.00630595       0.00586069       5.57518064      -0.13500168      -0.27777131      -6.44890258 F F F
 C              8.07808417       8.48236309       9.34186221       0.00650110       0.00267568       0.00058253      -2.91253725      -3.33113706      -1.62095104      -6.25251257 F F F
 C              8.35881463       6.60277457       1.99694154       0.00505166       0.04065271      -0.02140534       1.49216890       0.49463543       1.72666253      -6.00733392 F F F
 C              5.41299534       7.72777679       2.63217170       0.00545122       0.00323486       0.00635834       0.87259775      -4.58465250      -0.38288558      -8.10541294 F F F
 C              0.21868765       4.69838295       7.71993238      -0.02518209      -0.04485400       0.01434830       2.70856592      -1.38197661      -0.11686097      -6.84129726 F F F
 C              2.60790763       1.04023748       3.28848265       0.00607839      -0.00316986      -0.00091439       1.43648978       0.03919915       1.24437278      -6.90788807 F F F
 C              3.62755989       0.33570790       3.81365442       0.00676702       0.01420424      -0.00247606      -4.36983018       2.53542835      -0.21286392      -9.11161222 F F F
 C              0.76614912       6.01804092       7.55119578      -0.03451934       0.01470729      -0.01792680       3.40365066       0.78282793       0.44769207      -7.91162389 F F F
 C              0.24275748       7.44307427       2.95273865      -0.00127000       0.02191371      -0.00709729       5.05627015      -1.99528542       1.63896961      -7.45509941 F F F
 C              5.59684823       6.78026604       5.43974713       0.00876721       0.01130004       0.00634303      -3.87734736       3.94591656      -9.03635364      -7.34775094 F F F
 C              9.00691233       5.55177869       7.68273955       0.01459305      -0.01506151      -0.00567356       5.16875701      -4.98864200      -0.41742680      -8.29408140 F F F
 C              5.07350670       5.07263497       6.00319132      -0.02609786       0.01434255      -0.03168933       1.98820479      -2.94615531       1.91491063      -6.84420809 F F F
 C              1.70025134       6.89561717       3.21850881      -0.02832151      -0.03650427       0.00471426      -5.71526533       2.76104138      -2.87603232      -5.98707283 F F F
 C              6.99259693       6.96201677       7.19149082       0.02189235      -0.02231962      -0.00238259      -0.53163410       0.58115108       2.07906531      -9.01207396 F F F
 C              0.98411986       3.43475581       7.76313049       0.00582511      -0.00997679      -0.02105525      -3.31088523       3.16976769       3.55048746      -6.54353231 F F F
 C              8.12603254       6.33760832       7.84415586      -0.01663367      -0.00140750      -0.01311385      -5.18734296       5.49606770       1.85248285      -6.72676512 F F F
 C              7.77536606       7.77221211       1.89207408      -0.01591256       0.00761560      -0.00873235      -0.96446973      -1.88004663      -2.38272466      -7.56014493 F F F
 C              1.52865394       6.91362661       8.24237584       0.00552988       0.02372002      -0.00929555      -2.20831162      -2.91451176      -2.71571331      -6.88867124 F F F
