      50
 Properties=species:S:1:pos:R:3:velocities:R:3:forces:R:3:local_energy:R:1:fix_atoms:S:3 Lattice="9.9905032156        0.0000000000    0.0000000000    0.0000000000    9.9905032156    0.0000000000    0.0000000000    0.0000000000    9.9905032156" temperature=6233.86039072 pressure=33902.56157771 time_step=0.5000 time=0.000000 energy=-217.145338 energy_soap=-226.89012661  energy_2b=8.35385530 energy_3b=1.39093371 energy_core_pot=0.00000000 energy_vdw=0.00000000 energy_exp=0.00000000 energy_xps=0.00000000 virial="1.22653523            3.72375697     -8.50806884      3.72375697     -5.09207282      1.11987395     -8.50806884      1.11987395    -11.80147994" stress="-0.00123004          -0.00373439      0.00853235     -0.00373439      0.00510661     -0.00112307      0.00853235     -0.00112307      0.01183517" volume=997.153669 step=0
 H              7.08158425       2.12123848       4.22017719      -0.10424269       0.04901507      -0.02126121       3.72898980      -0.06297528      -1.58773658      -2.52942501 F F F
 H              0.12123153       9.05376119       8.06018541       0.05511942      -0.13862045      -0.09491580       0.13369682      -0.67496060      -0.01996015      -1.54712698 F F F
 H              8.29990174       5.24409748       9.97947158      -0.03379789      -0.08919273      -0.09539366      -0.59137454      -0.65038221       1.49641834      -2.04111562 F F F
 H              7.49976310       6.77628907       5.01260584      -0.03313617      -0.04200131       0.17089101       0.23091330      -0.26476639       1.15616205      -2.74370912 F F F
 H              3.99882976       6.90474167       4.37991894      -0.04717663      -0.09996344      -0.08501935      -0.03313310       0.03735725      -0.06175893      -2.95779259 F F F
 H              1.43811441       7.25192000       8.60964116       0.00217634       0.05503036      -0.07316467       0.80627212       0.01941974      -0.33304395      -2.98304621 F F F
 H              2.52425352       5.86846893       1.69399210       0.00288168       0.06337302      -0.04194893      -1.18148055      -0.19543076      -1.51104777      -1.33909757 F F F
 H              0.28435746       5.45591533       7.13467940      -0.04709908      -0.02676819      -0.02132343      -1.53303883       0.37247790       1.23807845       1.50722613 F F F
 H              9.37218524       7.45593463       9.32761157       0.00780463       0.08317307      -0.06687431      -1.39105797       0.08110078       0.13091264      -1.84355877 F F F
 H              5.01074463       2.20421024       7.50762578       0.00593699      -0.00472573      -0.00746303       1.24236506       1.72095522      -0.01394800      -2.71501884 F F F
 H              7.09817788       5.60735858       2.56485257       0.04024220      -0.10994317       0.00901204       0.27426606      -5.61017661      -3.15981988      -2.89996984 F F F
 H              6.47535845       2.14677839       4.45302726      -0.04452010      -0.00361124      -0.05143948      -3.64111605       0.09718289       1.35710835      -2.88010903 F F F
 H              4.29579074       6.18285180       7.29302060      -0.18317423       0.00188415       0.08047451       0.90414298       0.34738355       1.49723144      -2.89814424 F F F
 H              8.24272464       3.40169506       2.26932998      -0.01906559      -0.06144877       0.02388213       0.42638556      -0.57828639       1.59843070      -2.19748843 F F F
 H              0.98386248       7.90835094       8.73378160      -0.08045019      -0.07825075       0.01289140       0.53911621       0.44823549      -0.62052901      -2.06649102 F F F
 H              0.71604825       4.31898138       2.21050862       0.05745315      -0.03573231       0.08880784      -0.73142495      -1.57291219       2.11554699      -2.19620508 F F F
 H              2.78233825       1.06894440       9.38288810       0.11290438       0.04799783       0.12892190       0.44494449       1.51287729      -1.83398439      -2.87385044 F F F
 H              0.03569688       1.46692753       2.58271084      -0.07186101      -0.00643676      -0.06220066       0.97613695      -0.32354536      -1.90154541      -2.39029785 F F F
 H              6.98763339       6.12572815       6.65525262      -0.11075823      -0.06253935       0.05639851       0.01787113      -0.56460589       1.11970933      -2.87165808 F F F
 H              4.30253084       7.28594932       3.82039312      -0.04766311      -0.08290127       0.00536226      -0.03026166      -0.15311855       0.07637554      -2.98260794 F F F
 H              2.04081964       9.13359828       0.65978714       0.08808050       0.07943726      -0.18571078       0.15045839      -0.34757543       1.94875807      -3.05775765 F F F
 H              1.99068685       9.21650739       9.94316104       0.00779382      -0.06171060       0.03666929      -0.11529658       0.20782129      -1.47415467      -2.89416656 F F F
 H              9.09947567       1.79259930       0.93009122       0.04081761       0.08416655      -0.01189777       0.15670392       0.16269060       1.77987228      -1.31013248 F F F
 H              0.45642210       2.97706721       6.86152670       0.01390010       0.07644261      -0.04137305      -1.66134490      -0.99314539       0.84355228      -0.58342968 F F F
 H              9.91442347       7.16916836       5.14851991       0.02724501       0.09326836       0.00225746      -0.14833777       0.85629739       0.81461969      -1.06732448 F F F
 H              9.62202543       1.44952540       4.40386498      -0.06433939      -0.14752858      -0.01946225      -0.42623320       0.32267377      -2.00647552      -2.12857160 F F F
 H              4.83256960       6.38447196       7.90809831       0.01081934      -0.00979981      -0.04819711      -1.14370012      -0.37439103      -1.57842638      -2.87951882 F F F
 H              7.06829511       6.14696171       2.87024262      -0.12030983      -0.00823877      -0.09965269      -0.40705498       5.39503656       3.02166447      -2.80296877 F F F
 H              3.24655799       9.80033403       5.98282470      -0.02892617       0.00462983       0.01074057      -0.63790401       2.52183940       0.57069116      -2.23357568 F F F
 H              2.89571044       1.47196982       8.63575414      -0.02172316      -0.02514262      -0.01828304       0.45501430      -0.75718667       1.31816092      -2.47313673 F F F
 C              2.91695605       1.04550774       6.37945611       0.04362372       0.02486507      -0.01880888       3.70200316       1.59367484       1.65495031      -6.98433445 F F F
 C              1.83444563       4.64918847       8.84852416       0.00296703       0.03887068      -0.01271072      -0.34122420       1.53396047      -2.87154559      -6.77909664 F F F
 C              9.24577024       1.77387094       3.15480072      -0.01194001      -0.01379215      -0.01741357      -1.90531337       2.15119090       3.85711484      -7.96646408 F F F
 C              8.53271879       2.94880269       3.37903197      -0.02298584       0.02561205       0.00426653       0.99562142      -1.12530521      -2.90538771      -8.07899958 F F F
 C              7.79814075       6.52231798       6.10197916      -0.00760922       0.00998357       0.00728295       2.44164197       2.44229739      -1.55670475      -7.19748742 F F F
 C              9.03839729       6.80504272       8.50425210      -0.01112909      -0.00883469       0.01156693       0.08430960      -2.98938300      -0.53401144      -8.91390252 F F F
 C              1.40226851       5.60113286       0.51918384      -0.01465705      -0.02808472       0.01350946      -0.09763889      -3.07036309       0.95784218      -7.31715601 F F F
 C              1.48003004       5.00813870       7.52500385       0.01925346      -0.01521661       0.00773771       0.83133685       0.80193573       2.95496402      -9.33400969 F F F
 C              1.55351784       5.35117074       5.95355855       0.01478331      -0.00403125       0.02269344       0.80847028       0.51059073       2.12159902      -7.35147297 F F F
 C              1.69760168       3.29654567       5.26536980       0.00166469      -0.02520780      -0.00663372      -1.09319643      -3.43771154      -1.82090037      -2.37590939 F F F
 C              9.18372339       7.13902590       6.44244425       0.00423250      -0.02140056      -0.01889469      -2.01298300      -2.20468953      -0.52084523      -7.89769136 F F F
 C              9.93394955       5.32132749       5.66111512      -0.00537360       0.05710095       0.04098744      -0.19963806       0.61926190      -0.42365050      -8.32064419 F F F
 C              0.68890971       4.65693683       1.23473490       0.03414006      -0.01359055       0.02603254       1.12020277       3.05781598      -2.70927699      -7.56671515 F F F
 C              2.58078264       4.29942920       9.88041717       0.00041583      -0.00633490      -0.01019955      -0.28651670       0.49465285       0.92399665      -6.39788672 F F F
 C              4.32912317       1.42180866       7.40344924       0.01992436      -0.04284010       0.02596918      -5.12393980      -3.25421751      -1.63849709      -6.60933737 F F F
 C              2.66164682       4.10293907       5.63761912      -0.02321428       0.00960430       0.00467262       3.47836792       2.05765540       1.16742303      -7.39012356 F F F
 C              2.41837724       2.50606967       6.20773095      -0.02092548       0.01877569      -0.00719728       2.14393754      -3.17541179      -0.51018996      -9.61617601 F F F
 C              9.49679047       5.43308134       8.00227155       0.01071756       0.02872132       0.02607124       0.61094297       1.51251377      -1.25295542      -7.64440864 F F F
 C              9.07597137       5.32026930       9.25394428       0.00001460      -0.00202037      -0.02276034       1.69791419       1.84543569      -0.80145741      -7.98786721 F F F
 C              0.49319396       3.92404019       5.25773988       0.01529968       0.00617969      -0.04091192      -3.66881613      -0.34379436      -2.07332965      -8.53558569 F F F
      50
 Properties=species:S:1:pos:R:3:velocities:R:3:forces:R:3:local_energy:R:1:fix_atoms:S:3 Lattice="9.9905032156        0.0000000000    0.0000000000    0.0000000000    9.9905032156    0.0000000000    0.0000000000    0.0000000000    9.9905032156" temperature=6066.59854493 pressure=32979.42786006 time_step=0.5000 time=10.000000 energy=-219.226959 energy_soap=-231.15921710  energy_2b=8.42495121 energy_3b=3.50730690 energy_core_pot=0.00000000 energy_vdw=0.00000000 energy_exp=0.00000000 energy_xps=0.00000000 virial="-12.68887117          2.23365974     -3.37653715      2.23365974     -8.01216697     -5.62082573     -3.37653715     -5.62082573      5.42920164" stress="0.01272509           -0.00224004      0.00338618     -0.00224004      0.00803504      0.00563687      0.00338618      0.00563687     -0.00544470" volume=997.153669 step=20
 H              6.48083475       2.55366998       3.83463098      -0.06722925       0.03516652      -0.02634592       4.26591383       2.13598560      -0.98439854      -2.60287326 F F F
 H              0.62438493       7.89051027       6.87251754       0.03141276      -0.08078775      -0.16574270      -0.92660226       1.24164959      -1.53806139      -1.63085683 F F F
 H              8.16488420       4.32847710       9.40211357       0.04562477      -0.05225214      -0.05016338       1.09467294       1.28021950       0.06769299      -2.26243683 F F F
 H              6.62892406       6.62703638       5.12608945      -0.03993293      -0.01283892       0.00151234       1.86401110      -0.25397370       1.19610419      -1.64921277 F F F
 H              3.48731977       5.91065870       3.67396484      -0.04375633      -0.08576899      -0.06921979      -1.87948169      -2.45142233       0.22004139      -2.88576424 F F F
 H              1.65684906       7.48662185       8.03503929       0.02721403       0.00587467      -0.02568250       2.36049251       0.75627980      -0.72351182      -2.31696104 F F F
 H              1.97709686       6.30992283       0.70594782      -0.10685341       0.02268005      -0.13176732      -0.91095003      -0.29304952       0.16168255      -1.55038997 F F F
 H              9.40169127       5.72307810       7.14522394      -0.05322570       0.08317358      -0.03632613       1.43848500      -0.51697172       1.33769387       1.25737624 F F F
 H              8.54106458       7.83846809       8.71998675      -0.12464507      -0.02913816      -0.07743100       0.32281383      -1.75098899      -0.60501851      -2.47190716 F F F
 H              4.86639547       1.95134822       7.36622619      -0.02604726      -0.06882501      -0.00133189       1.60888450       0.84270638       0.65918194      -1.83660451 F F F
 H              6.88899921       5.16738555       2.50999184      -0.04746228       0.01679344       0.02103637       5.62080833      -1.62148128       5.58531697      -2.69320487 F F F
 H              5.94456662       2.24259262       3.99381035      -0.00548361       0.02045307      -0.05924853      -3.95097600      -2.37246283       1.32863361      -2.93374256 F F F
 H              3.65404261       6.33498327       8.12079515       0.04795514       0.02214796       0.01614905       0.85356697      -0.07855250      -1.44152079      -2.76301275 F F F
 H              7.74096706       3.22503054       2.30677674      -0.06419741       0.02616782      -0.00072480       1.30710225      -0.08950452       1.58320129      -2.08732092 F F F
 H              1.10891555       7.28731626       8.42147318       0.10714448      -0.04764525      -0.04137771      -0.89249866      -0.16493404       2.44522641      -2.13247848 F F F
 H              1.04036888       3.90430029       2.40074843       0.02538403      -0.02847146      -0.05555756       0.48859569      -1.04582104       1.70976192      -2.12527172 F F F
 H              3.64864187       1.83489825       9.45725808       0.06645611       0.09279385      -0.04803499       0.26173427       0.73060344       0.31538676      -2.93750992 F F F
 H              9.33239789       1.52008965       1.74491878      -0.08036485       0.04635829      -0.05424715       0.48364863       1.22466579       0.40591690      -2.13199374 F F F
 H              6.83128027       5.88976404       7.08622297       0.08392217       0.03095361       0.01722259       1.97081741       1.29373244      -0.73537957      -2.14807723 F F F
 H              3.88819655       6.43853829       3.67584179      -0.04151790      -0.09636299      -0.01190999       1.92061505       2.35308522       0.03295560      -2.91093822 F F F
 H              2.83819932       9.60801923       9.89633398      -0.00917808      -0.05306999      -0.11768838      -2.12810997      -3.25310233      -0.52963578      -2.59959388 F F F
 H              2.20217725       8.92244514       9.48952584       0.10882035       0.05069687       0.02596159       1.89919478       1.99569613       1.25675522      -2.88424858 F F F
 H              9.59951020       2.57729253       1.36537975       0.05880850       0.05558123       0.05928836       0.01891943      -0.70408372      -0.22032100      -2.01391647 F F F
 H              9.82170253       3.20807207       6.92557742      -0.07704787       0.01332327       0.02710856       1.39038927       1.05222279      -0.68384527      -1.21425133 F F F
 H              9.87401350       8.18020185       5.72495715      -0.04516632       0.05746190       0.10907710      -0.93443634      -1.15591641       0.44414342      -1.55428571 F F F
 H              8.70311164       0.66688531       3.21044952      -0.11657659      -0.01972404      -0.15622859      -0.29609375       0.82639344       0.67329712      -2.79688435 F F F
 H              3.71878158       6.13509175       7.36007617      -0.20226907      -0.02325457       0.00631336       0.71026537       0.58947912       1.35460592      -2.81688126 F F F
 H              6.45726695       5.29166209       2.10445714      -0.03711866      -0.14933363      -0.08383181      -5.85482776       1.88220580      -5.15966360      -2.80425134 F F F
 H              2.83057645       0.39131966       6.16513990      -0.03594247       0.02063042       0.01456091       1.54024517       0.62322983       0.51291362      -1.87823306 F F F
 H              3.26388664       1.21030611       9.34293394       0.07427453      -0.00530591       0.09363412       0.13537040       1.02949374      -0.87752870      -2.32509061 F F F
 C              3.43552164       1.39581242       6.29485374       0.05259790       0.04733137       0.00334862      -2.21433090       0.19530318       1.96454563      -8.31861876 F F F
 C              1.89964075       5.05397644       8.81893818       0.01077825       0.03827249       0.02306910       0.03529018      -1.34434263       4.43937272      -6.46543863 F F F
 C              9.07937727       1.70736078       3.10550826      -0.02032749       0.00260122       0.00002738      -2.09423857       3.18051647       0.03887459      -7.48944083 F F F
 C              8.38633818       3.05924672       3.38355594      -0.00700319      -0.00583068      -0.00377580       1.17076057      -3.70084247      -2.50876876      -7.62888261 F F F
 C              7.80162315       6.63402519       6.33875032      -0.00090653       0.01270233       0.02664621      -1.99233699       0.37120835      -0.76235724      -9.70377942 F F F
 C              8.90561338       6.68723899       8.60796977      -0.02002269      -0.00165307       0.01456706      -2.15017710       3.22835288       2.26662175      -9.16541838 F F F
 C              1.32701056       5.29045210       0.59798867       0.00308247      -0.02868932      -0.00266753       1.52652343      -0.53282008      -1.15926241      -7.58447396 F F F
 C              1.64684294       4.89712850       7.58993997       0.00955305      -0.00963378      -0.00743162      -1.58895515      -0.74362391      -1.39572956      -8.48294349 F F F
 C              1.68753572       5.37889465       6.23636488       0.00860341       0.00860129       0.02901418      -2.30070160       0.37032756      -0.96426510      -6.95400726 F F F
 C              1.68860781       2.99495515       5.12426302      -0.00596596      -0.02633752      -0.02035071      -2.14904325       2.06392182      -0.60403358      -4.44973081 F F F
 C              9.15698479       6.85579462       6.19324573      -0.01135559      -0.02839053      -0.03236689      -4.42411822       4.66782388      -1.54033876      -5.71788921 F F F
 C              9.90832230       5.88677766       6.05665513       0.00350196       0.05088596       0.03573212       5.09889606      -5.84255614      -2.98792719      -8.82551231 F F F
 C              1.00923678       4.50431461       1.56795068       0.02596951      -0.02094958       0.04054518      -0.77656394       1.57263446      -3.43893156      -7.80964335 F F F
 C              2.56033256       4.26572523       9.78298273      -0.00370744      -0.00112327      -0.01017303      -0.23284007       0.25552997      -0.03244001      -7.58568685 F F F
 C              4.39307814       0.98665220       7.57519317      -0.00470192      -0.03706435       0.00451224      -3.52067846       0.60810656      -3.46190865      -7.13580573 F F F
 C              2.50403824       4.21731493       5.70277783      -0.01327340       0.00891920       0.00649925      -0.44278945      -0.96420259      -0.18480043      -8.56691958 F F F
 C              2.34162807       2.54005211       6.15019795       0.00615323      -0.01008344      -0.00095995       2.76793459      -1.77587614       1.16123176      -7.48969388 F F F
 C              9.68861196       5.77519151       8.12162555       0.02718468       0.03213065      -0.00129415       0.13568274      -1.91105668      -0.45812013      -7.52710519 F F F
 C              9.03302908       5.26851936       9.15493190      -0.01439022      -0.01821233       0.00960859      -1.04650775      -2.33681962       0.85995006      -8.85697903 F F F
 C              0.53735993       3.95813019       4.80111117       0.00023066      -0.00065003      -0.04550728       0.41562359      -1.46696856       0.97666018      -7.76817232 F F F
      50
 Properties=species:S:1:pos:R:3:velocities:R:3:forces:R:3:local_energy:R:1:fix_atoms:S:3 Lattice="9.9905032156        0.0000000000    0.0000000000    0.0000000000    9.9905032156    0.0000000000    0.0000000000    0.0000000000    9.9905032156" temperature=4905.65269479 pressure=20493.46113854 time_step=0.5000 time=20.000000 energy=-213.928349 energy_soap=-223.72717885  energy_2b=9.05701987 energy_3b=0.74180958 energy_core_pot=0.00000000 energy_vdw=0.00000000 energy_exp=0.00000000 energy_xps=0.00000000 virial="-8.01066574          -5.37197995     -0.33461570     -5.37197995     -5.20604026      6.49861997     -0.33461570      6.49861997    -10.66171446" stress="0.00803353            0.00538731      0.00033557      0.00538731      0.00522090     -0.00651717      0.00033557     -0.00651717      0.01069215" volume=997.153669 step=40
 H              6.09526417       2.79236704       3.67191310      -0.02640904       0.01315612       0.01774421       4.06027985       3.43920965       1.38336682      -2.65658655 F F F
 H              0.58965056       7.82833347       4.92101731      -0.02460977       0.02643445      -0.18375236      -0.61524247      -0.27439786       0.45363356      -1.12658404 F F F
 H              8.81152460       4.06403793       8.98578563       0.06600054      -0.03163690      -0.02994133       0.16007994       0.80286527       0.47832337      -2.40867147 F F F
 H              7.05346976       6.51988891       5.73677301       0.08195938       0.00923269       0.10525011      -2.68486995       0.02788895      -1.52424296      -1.91056905 F F F
 H              2.97325321       5.04420722       3.14055293      -0.07901856      -0.09608964      -0.05626453      -0.96510245      -0.60099404      -0.24862390      -2.93560555 F F F
 H              1.91279670       7.97138066       7.74087840      -0.03961477       0.06610465      -0.04267721      -0.85899370       1.15296939      -3.38328544      -2.87812542 F F F
 H              0.77516019       6.33217816       9.94517590      -0.08378090      -0.01311426       0.00564331       1.63895072       0.01094503       1.51917606       0.24906788 F F F
 H              9.44329842       5.88561783       7.27204106       0.01894243      -0.00764714      -0.03495263       0.00145448       0.32000488      -0.83187632       1.44800239 F F F
 H              7.64732425       7.14422390       8.27372901      -0.04735311      -0.06220033       0.03029815       0.99176990       0.84578086       1.92324569      -1.36905682 F F F
 H              5.27396749       1.58524241       7.56288480       0.04610660      -0.07070964       0.03212041      -0.88360390      -1.36123058       0.01761089      -1.53717655 F F F
 H              6.12522968       4.94543462       2.20697808      -0.13259725       0.01855665      -0.05973637      -1.69264611       6.50328260       2.92327676      -2.89099538 F F F
 H              5.65549309       2.35619438       3.56452617      -0.04434624      -0.00974359      -0.04668164      -4.09737149      -4.37876473      -0.71046296      -2.94964695 F F F
 H              4.12184645       6.29041930       7.52397439       0.08405988      -0.02998142      -0.10745559      -0.06244257      -0.23233793      -0.05841876      -3.02439596 F F F
 H              7.78650962       3.52474504       2.71038673       0.02718829       0.09095646       0.01773881       0.13618550       2.67983714      -0.42212821      -1.72148176 F F F
 H              1.80797573       7.56917977       8.29572507       0.03540453       0.10721991      -0.03194057      -1.56139078      -1.85837596       1.77752886      -2.51971388 F F F
 H              1.63747320       3.21560834       2.57605868       0.08341021      -0.02168272      -0.00985451       0.12343390       1.49756454      -1.40390080      -1.59752504 F F F
 H              4.05992031       2.26656591       9.22552989       0.02411049       0.00819971      -0.00230484       0.27280130      -0.51765650       1.20670776      -2.90285824 F F F
 H              8.92541034       2.34267598       1.43303439       0.01039368       0.09653503      -0.01646129       1.46995169       0.26875177      -0.17787557      -1.21363076 F F F
 H              7.38452367       5.92898443       7.41381452      -0.03703758      -0.07563720       0.05410710      -0.75344882      -0.20735797      -1.94154668      -1.50159649 F F F
 H              3.46000513       5.39679642       3.52632467      -0.03650877      -0.10701132      -0.00247259       0.44288855       0.33521427       0.50984263      -2.95687362 F F F
 H              3.35180671       9.50880070       9.04617294       0.01818270      -0.04358778      -0.04946780      -1.16279970      -1.05692532       1.10502585      -2.26359337 F F F
 H              2.62478015       8.66729125       9.54545033       0.09864394       0.04148076      -0.02114112       2.41411184       2.68586683      -0.45767676      -2.32949992 F F F
 H              0.04224619       2.88999445       1.70254517       0.02504441       0.02298971       0.00399202      -0.39561994       0.07253860      -0.52598643      -1.79254857 F F F
 H              9.71420063       3.84443018       6.93422169       0.03845006       0.10242477      -0.01524868       0.28566768       0.05554356      -0.40721943      -1.43386939 F F F
 H              9.33316310       8.24802877       6.87378866      -0.06915030      -0.04684109       0.09791680      -0.36137951      -0.79409252      -0.69887596      -1.22743815 F F F
 H              7.90801867       1.14307808       2.30110725      -0.02387630       0.08610531      -0.01028218       1.12260470      -0.37863198       1.57978743      -1.84172143 F F F
 H              3.54755703       6.44258268       7.97046429       0.11519595       0.05176600       0.08618830       1.52941104      -0.34257000      -0.13434642      -2.66258749 F F F
 H              6.22565850       4.40254167       1.91874120       0.00012216      -0.09078099       0.01073960       0.46815755      -5.38280064      -3.36907715      -2.53729948 F F F
 H              3.20151167       0.82552146       6.43640420       0.07353521       0.03334599       0.01966082      -0.33288782      -1.53019201      -0.57509374      -0.18273621 F F F
 H              4.33931843       2.17846134       9.98028349       0.10924246       0.13543778       0.03919806      -0.74718692       0.26317403      -1.48803770      -2.98094825 F F F
 C              3.83732890       1.82110900       6.39341285       0.02815696       0.03616644       0.01610548      -2.73694916      -0.70820783       1.31364216      -7.78908234 F F F
 C              1.98207078       5.34336700       9.11511596       0.00278814       0.02306359       0.03227387      -2.00976885       0.22633913      -0.53110694      -6.48549830 F F F
 C              8.76865796       1.79342316       3.07387114      -0.03750874       0.00278198      -0.00938288       0.51928121      -7.23176431      -2.33142433      -7.85971073 F F F
 C              8.34868328       2.89748526       3.28782447      -0.00138451      -0.01717523      -0.00637238      -1.21908548       5.10493486       2.64909551      -8.53196470 F F F
 C              7.70820789       6.80350957       6.49900302      -0.01131582       0.01967430       0.00494947       1.61916916      -1.24828887       1.85028385      -9.15864589 F F F
 C              8.68474224       6.67513171       8.81442346      -0.02081699      -0.00824465       0.02054790       0.15508163      -2.49747724      -1.98458605      -7.83653404 F F F
 C              1.37809193       4.96016334       0.56071547       0.00681158      -0.03758758      -0.00416152       0.45963371      -0.76338782       0.39378311      -7.71549056 F F F
 C              1.70031749       4.74369855       7.59843808       0.00451465      -0.02146577       0.01331108       1.12656688      -0.70913105       2.82681911      -9.34858576 F F F
 C              1.66787799       5.45702747       6.41694170      -0.00975932       0.00672973       0.00460071      -1.72476006       0.11908484      -2.74628113      -4.86033479 F F F
 C              1.57809017       2.83770444       4.94672440      -0.01280393      -0.00409286      -0.01144457       0.36518343       3.14351407       2.03962658      -5.74302825 F F F
 C              8.84285038       6.82654455       5.80328869      -0.03154568       0.00721760      -0.03973019       3.62043629       0.66660069       1.51219203      -8.39074196 F F F
 C              0.24740543       6.09640012       6.28980366       0.04443322       0.01051986       0.01207399       0.49377512       0.40396304      -1.95105385      -8.87186424 F F F
 C              1.26693884       4.38769782       1.82308447       0.02795004      -0.01009006       0.01951613       0.96728362      -0.73566274      -0.56730551      -8.13025906 F F F
 C              2.51099051       4.26662905       9.70522224      -0.00432354      -0.00115001      -0.00207597       1.10680815      -1.67510038       2.28294856      -7.11055322 F F F
 C              4.24429751       0.66762888       7.51545220      -0.01712834      -0.02063193      -0.01296232       0.98073173       3.29323640      -0.61812716      -7.58361344 F F F
 C              2.33106123       4.24994599       5.73336193      -0.02220721      -0.00312422      -0.00113976      -1.38367858      -1.68123489      -1.07057609      -9.44309675 F F F
 C              2.48093729       2.42935328       6.13437689       0.01885673      -0.00664403      -0.00554401       0.74745881       2.24729557      -1.50408360      -7.70712628 F F F