50
Lattice="9.9905032156 0.0 0.0 0.0 9.9905032156 0.0 0.0 0.0 9.9905032156" Properties=species:S:1:pos:R:3:velocities:R:3:local_energy:R:1:fix_atoms:S:3:forces:R:3 temperature=4825.84258544 pressure=19137.94804129 time_step=0.5 time=0.0 energy_soap=-325.96648934 energy_2b=82.97603134 energy_3b=0.33758501 energy_core_pot=0.0 energy_vdw=0.0 energy_exp=0.0 energy_xps=0.0 virial="-9.09705172 4.72244258 -6.3820993 4.72244258 -7.40326094 -8.2396826 -6.3820993 -8.2396826 -8.89802503" volume=997.153669 step=0 config_type=iter_6 energy=-242.652873 stress="0.00912302 -0.00473592 0.00640032 -0.00473592 0.00742439 0.0082632 0.00640032 0.0082632 0.00892342" pbc="T T T"
H        3.52790552       9.37859446       6.25634941       0.15874297       0.04392071       0.01939815      -1.80506241 F F F       1.46230363       0.11120171       0.39257124
H        7.46099119       3.23195794       1.06828625       0.05639908      -0.10490211       0.11445590      -2.07123665 F F F       0.37749439       0.70422972      -0.32652009
H        8.60060840       7.48448513       0.85902497      -0.10433326       0.04653304      -0.01579696      -3.02151391 F F F       0.55320695       1.35461504      -0.92017076
H        3.80847744       6.46637097       0.68142201       0.01715879      -0.11018917       0.02417779      -1.51948822 F F F      -1.41043005       1.45118672       0.94499091
H        6.07832630       4.83967189       7.26993133       0.01307038      -0.05771071       0.00568980      -2.95880036 F F F      -0.25629087      -0.14282445       0.79367405
H        2.46088781       6.27372452       5.06370167       0.09681837       0.08234834      -0.01378322      -1.06376422 F F F       0.66261757       1.64043247       0.45229625
H        1.01977102       2.27420076       2.31308282       0.17061686       0.04173246      -0.03507503      -2.19323866 F F F       0.00983003      -2.17512811      -0.92687979
H        4.69606372       4.66829537       1.05065459      -0.01361048      -0.11864903       0.00393178      -3.54796617 F F F      -0.19162075       0.35861540      -1.28432525
H        6.07854808       4.18562838       2.21640224      -0.04668132       0.09914710       0.01330088      -3.00036999 F F F       0.20288676       0.22704339      -0.62315694
H        2.61563389       3.97551192       8.83605310      -0.23618887      -0.01101041       0.11596445      -1.75999071 F F F       0.69937363       0.33103241      -0.30069325
H        2.02057985       8.72479399       2.39915607      -0.01358503      -0.07497994       0.00950279      -2.69514031 F F F       0.28915604      -1.33060803      -3.93573417
H        3.84244631       2.54528664       4.27223631       0.06281453      -0.09227480       0.04014796      -2.36812340 F F F       1.50895200      -2.47061394      -0.46204680
H        5.53587531       2.54990277       2.58264927       0.10437278      -0.01215493      -0.09173480      -2.06440680 F F F      -0.80429086      -2.35384738       1.23529315
H        5.11430779       8.80384416       7.50007397      -0.11333385       0.04333469       0.05240609      -1.98271255 F F F       0.73589942      -1.35640150      -0.58137625
H        5.99681116       4.58888000       7.97696580      -0.01756368      -0.06426296       0.07404164      -2.96221119 F F F      -0.30021713       0.58431280      -0.51944493
H        7.09214670       1.45330378       4.21412586       0.00822475       0.02794544      -0.04262060      -2.90131250 F F F       2.61747509       0.37609994       4.58770139
H        8.75992113       1.80679905       7.97904303       0.15713685      -0.03248949       0.04147566      -2.97995567 F F F      -0.65557997      -1.57283122       0.35231700
H        6.30378692       3.47860293       1.67563630      -0.07102638      -0.05491601      -0.01426800      -1.74821180 F F F      -0.37690517       1.57939250       0.61109232
H        8.36513153       6.98424672       1.27496877       0.06463372      -0.02481464      -0.06465212      -2.88542268 F F F      -0.34005882      -0.88292280       0.71475834
H        3.05741393       5.72269381       7.57604829       0.01642157      -0.04125748       0.07001747      -2.51333764 F F F       0.22255775       0.65456621      -2.29786808
H        2.78765991       4.97014602       9.96386948       0.02692147      -0.07074424      -0.04438196      -2.61316991 F F F      -0.91439060       0.51731643      -0.98120848
H        9.08096083       2.40946989       7.90744415      -0.14318154       0.01954126       0.03284207      -2.93710293 F F F       0.79707912       1.22860139      -0.29893429
H        3.36258718       7.72903695       5.17681427      -0.07009888      -0.07953331      -0.09180607      -1.13086565 F F F      -0.32843292      -1.18390387       0.37676780
H        7.06868690       1.92509643       1.08386626      -0.00528295      -0.04081909      -0.03833255      -3.05468402 F F F       1.40642266      -2.32473894      -1.19630439
H        2.07470896       8.48840006       1.41268951       0.05045809       0.03816352       0.06665111      -2.53846418 F F F       0.20499575       0.67336002       3.94276747
C        2.95948896       0.35548367       3.94981922       0.01748661      -0.00496023      -0.01280385      -7.09056502 F F F       3.11109115       1.99006752       0.18763364
C        1.85926860       8.92516772       5.00071465      -0.01839681       0.00554758      -0.01328520      -7.94772536 F F F      -3.43085083      -1.73836631       0.29002139
C        8.75094546       0.20425323       0.57331699       0.00350861       0.01527297      -0.00269903      -3.89599865 F F F      -0.98738065       5.88212876       9.89120252
C        4.71939425       6.97454106       1.18039732      -0.01073821       0.00490286      -0.00921188      -8.23570607 F F F       1.09644529      -0.28436799       1.99550415
C        1.04194928       0.95082634       2.03601568      -0.00781455      -0.02421665      -0.01990801      -7.48060062 F F F      -2.34901048       1.67706293       0.34425568
C        3.38885990       5.45968992       9.16073370      -0.01098868       0.00005799      -0.01246292      -7.72950045 F F F       4.58679644      -4.30753009       1.98101475
C        5.16197865       7.51959625       2.31153760       0.00978015       0.01250100       0.01567056      -6.34630075 F F F      -1.02986882      -1.41357826      -5.09556141
C        1.94451525       0.91784656       3.33266263      -0.00385139       0.00148121       0.00859226      -8.81671822 F F F      -2.12757250      -0.52909367      -3.02916963
C        4.59606892       5.45067767       0.22704636       0.00626832       0.00053922       0.00416794      -7.44598619 F F F      -1.45043610       1.88949719      -0.76093481
C        8.79655358       9.60940136       9.49690173      -0.00439245      -0.00031579       0.03459076      -8.24949496 F F F       0.69890603      -5.16706627     -10.00104917
C        3.78922898       4.88987195       7.81042050       0.02980277       0.00210018      -0.01617684      -6.49005953 F F F      -2.13337055       0.64027198       3.74953787
C        6.93750293       9.46902059       1.02920677      -0.01033724       0.00948234       0.01521408      -5.93158403 F F F      -1.76856092       1.01256068       1.63855883
C        5.56567851       7.54268679       3.64580068       0.01997216       0.01565363      -0.02185887      -5.43742479 F F F       0.80188976      -0.18204390       3.32772650
C        5.37812947       9.27638266       1.49043061       0.00036927      -0.02059066      -0.02325975      -7.46401474 F F F       0.94360842      -0.90327506       0.03030605
C        4.65955252       8.74220716       3.32946778      -0.01269929       0.01344397       0.02388638      -8.68024532 F F F      -0.65951992       1.05897465      -1.42517188
C        4.50408222       8.84687884       5.85919534      -0.00296677      -0.01527958      -0.02016952      -7.93978477 F F F      -1.34840888       0.14825853      -1.14469008
C        5.62191566       1.29056611       3.01925532       0.01333146      -0.00978081       0.00711478      -6.94046037 F F F      -6.34192533       0.84044098       0.13896494
C        5.51512828       7.87540014       6.47758423      -0.01394063       0.00180005       0.00103856      -5.79449170 F F F      -2.31355934       2.69136076      -2.17082688
C        0.01476797       0.39079996       1.24777548      -0.00442064       0.02379581       0.00718410      -9.10331927 F F F       2.14509547       1.93525285       2.50117745
C        5.73215970       7.72093668       4.99022401       0.01678353      -0.02362102      -0.02079723      -8.52498518 F F F       0.89173151      -1.34428411       0.88690530
C        6.64858221       9.24791756       2.45833191       0.00417738       0.01168331       0.01976175      -7.88896865 F F F      -0.42667822       0.43451966       0.26087140
C        6.82666724       1.65408027       3.26287621      -0.00396823       0.00957183      -0.00517319      -6.64225207 F F F       0.59121810      -0.66008007      -2.82662710
C        7.37444104       0.78963409       1.02298977      -0.01185990      -0.00763347       0.01157874      -7.92235233 F F F       3.00117894      -0.24660232      -0.47054105
C        3.08094646       9.33001858       4.90796716      -0.02026990       0.01090463       0.01923860      -5.99975435 F F F       2.91434843      -1.14067485       1.44019698
C        4.43593103       1.24421178       4.00079759       0.00096019       0.01374806      -0.00970496      -8.33802708 F F F      -0.58720066       1.71838049      -1.48887189
50
Lattice="9.9905032156 0.0 0.0 0.0 9.9905032156 0.0 0.0 0.0 9.9905032156" Properties=species:S:1:pos:R:3:velocities:R:3:local_energy:R:1:fix_atoms:S:3:forces:R:3 temperature=5214.03906362 pressure=10476.20098162 time_step=0.5 time=20.0 energy_soap=-339.122617 energy_2b=89.31928108 energy_3b=1.041813 energy_core_pot=0.0 energy_vdw=0.0 energy_exp=0.0 energy_xps=0.0 virial="-22.2394122 5.42432291 -6.06138432 5.42432291 -4.07732547 -3.17122205 -6.06138432 -3.17122205 -20.17161759" volume=997.153669 step=40 config_type=iter_6 energy=-248.761523 stress="0.02230289 -0.00543981 0.00607869 -0.00543981 0.00408896 0.00318027 0.00607869 0.00318027 0.0202292" pbc="T T T"
H        5.77630441       0.13269879       5.90211574       0.03763682       0.00873966      -0.07535279      -1.56973772 F F F      -0.60508625      -0.22818250      -0.74689997
H        8.00926782       1.10234096       3.74351798      -0.09949410      -0.12814591       0.08925727      -2.59876754 F F F      -2.09359841       2.84698285      -1.53141512
H        8.35372153       7.11094205       0.28754781       0.05601398      -0.04003674      -0.08150516      -2.95444898 F F F      -0.07540355      -0.17911939      -0.33430547
H        3.64036813       5.49904331       1.43802249      -0.02103673      -0.03520462      -0.07611170      -2.08156819 F F F      -0.81782074      -0.43381854      -2.02928516
H        6.40560451       3.52032472       8.24875113       0.02243575      -0.05705056       0.05175843      -3.13548173 F F F      -0.79696131       1.50351496       0.87610932
H        4.30623938       6.67268461       5.96044360       0.07309660       0.07106213      -0.07006517      -1.90293493 F F F       1.16682227       0.81413463       0.33147446
H        2.97680825       0.65695164       1.42752203       0.00116624      -0.10754208      -0.07876012      -1.62406242 F F F      -1.10332830       0.24603342      -0.34663204
H        4.70039588       4.41793963       9.71460694      -0.00113688      -0.00615223       0.03015299      -1.98184201 F F F      -1.50095957       0.16197253       0.66408327
H        5.67439402       4.99343956       1.89832350       0.00705433      -0.08717401       0.05976463      -2.80826260 F F F       1.71723931       0.43652696      -0.39414575
H        9.83997726       4.60052849       0.68184275      -0.09286544       0.04264403       0.06031219      -0.35570634 F F F      -0.07926610       0.14378851      -0.16853766
H        2.42677732       7.56553406       2.30862534       0.03185046      -0.09643981       0.01995491      -1.67963509 F F F       0.63067640      -0.23162496      -0.57286483
H        5.04333117       1.65352817       4.75779516       0.00366265      -0.06248532      -0.07836822      -1.99050369 F F F      -1.03858802       0.55819330      -0.42337227
H        6.98047165       2.62395857       2.17363666       0.08386970       0.02106245       0.05625635      -3.19705400 F F F       0.29124450      -2.11067787       2.00293496
H        4.23156014       8.25826446       7.26647892       0.04325576      -0.05876070      -0.10387391      -1.92947696 F F F       1.62242650      -0.25704613      -0.59394680
H        5.97860494       4.20671424       8.57684969       0.05339294      -0.02508167      -0.02472291      -2.59964704 F F F       1.60526263      -1.91176417      -1.62214991
H        6.84940571       2.94465457       3.94376873      -0.10114119       0.01123996      -0.03299973      -2.82333497 F F F       0.36603175      -2.60698099      -1.58700058
H        8.71954984       2.20695546       8.87413016      -0.02848132      -0.13387588       0.05456858      -3.03291247 F F F       0.87186675      -1.01679776      -0.15727827
H        5.37797969       4.50120254       2.28672520       0.03471687       0.10596538       0.00723796      -2.96386973 F F F      -0.33059436      -1.49011794       1.21144869
H        8.11665131       7.76806347       9.95675219      -0.09681556       0.02177033      -0.02203719      -2.85070961 F F F       0.08719905      -0.50674893       0.14842304
H        4.84693764       5.71829924       7.12063785       0.13431838      -0.13406449       0.12310501      -3.15317434 F F F      -2.17634692      -1.31158401       1.86635164
H        2.55346181       4.92601003       8.96241589       0.03279622       0.08774839       0.07159016      -2.79864433 F F F       0.33566799      -0.14839755       1.81443958
H        9.23462162       1.59695886       8.83027275       0.02898453       0.15378243       0.01600381      -2.97183325 F F F      -1.05384400       1.96861963      -0.56528428
H        2.12097167       6.96986063       2.66973666      -0.04148254      -0.04940002      -0.13546499      -3.50561484 F F F      -0.08153469      -1.65814713      -0.00984841
H        6.92303062       0.89568792       0.05943931      -0.08524383      -0.02266782      -0.04676791      -2.47143559 F F F      -0.29969240       0.97099831       0.33948377
H        2.00379376       8.87687251       2.70454641      -0.08807961       0.01136477      -0.01184582      -1.85568404 F F F      -1.10901737       0.39518862      -0.33789913
C        3.27504749       0.51501443       3.84995005      -0.02080516       0.00867023       0.00933556      -7.06765481 F F F      -8.40328238      -0.86496258       0.53812761
C        1.66165070       8.98842633       4.82815981       0.01171153       0.00803242      -0.00520044      -6.85204342 F F F       1.09273586       0.58164446       0.22235137
C        8.80911420       0.60788824       0.80498435       0.01000393      -0.00139330      -0.00443199      -5.00801870 F F F       3.16239452      -2.47030940      -0.18434768
C        4.55138870       6.78050994       1.13859011      -0.01526004      -0.03262745      -0.00936858      -8.25854105 F F F      -0.04406604      -1.30323143      -0.62331646
C        1.26916763       0.72043269       2.08119833       0.00812754      -0.00259644       0.00001520      -6.51373002 F F F      -5.81970083       0.99814531      -7.42828149
C        3.70889348       4.98174123       9.11298552       0.01979364      -0.02841892       0.01481342      -7.07793472 F F F      -0.49447912       1.75352823       2.68132285
C        5.26430113       7.58607858       2.02365628       0.00764650       0.00392279      -0.01728154      -7.21115056 F F F      -1.28708000      -1.83827629      -0.81301343
C        1.85861678       0.79034019       3.13230050       0.01494542      -0.01492515      -0.00504648      -8.32157595 F F F       7.63352197      -0.74261192       7.75038469
C        4.22511990       5.64470875       0.30741052      -0.03933162       0.02197249       0.01014062      -8.44966409 F F F      -0.87809265       1.76911671       2.74776860
C        8.79817230       9.47710869       9.77095870       0.00417326       0.00927355       0.02696665      -7.22137587 F F F       0.84712248       2.13038727       2.00930229
C        4.01715881       5.00282718       7.86465612       0.00932728       0.01025977      -0.01097483      -7.38301245 F F F       3.96473517       0.69601867      -4.53956482
C        6.50297755       9.53254802       1.58076244      -0.01035167       0.00850463       0.03800670      -7.22826706 F F F       1.94246781       1.50249120       0.05977466
C        6.02209878       7.78560239       3.44827659       0.01910003       0.01136717      -0.00862278      -7.27234965 F F F      -1.13363105      -0.37388448       0.71319201
C        5.41541520       8.75768532       1.02811436      -0.00180002      -0.03249969      -0.02149188      -7.68736836 F F F       2.00089356       0.65090507       1.46188086
C        4.38944567       9.09943312       3.76367366      -0.00520171       0.01226407       0.02508013      -9.16268735 F F F       1.04792841      -1.98438789       0.61090301
C        4.15627991       8.80759340       5.50304382      -0.04428295       0.02089973      -0.02367288      -7.42601239 F F F       0.05187815       0.79346881      -1.12841940
C        5.62498853       1.00891613       3.21943402       0.03064307      -0.01542924       0.00218970      -8.01143854 F F F       3.92182557       0.79588312      -1.47513823
C        5.10088712       8.02137410       6.08770759      -0.01504533      -0.00034648      -0.02950340      -7.18768108 F F F      -2.73811603      -1.82066915      -1.88837403
C        0.01565721       0.91846813       1.43738179       0.02495260       0.02555739       0.01892567      -9.22681539 F F F       1.28652463      -1.25020314       0.02211707
C        6.04820220       7.25256851       4.73842558       0.01038207      -0.01204815      -0.01527513      -7.17157411 F F F      -1.35596939       3.13864215      -0.96929286
C        6.62027061       9.50466601       2.98586616      -0.01139530       0.01323832       0.03397152      -8.07353176 F F F      -2.71894097      -0.54219752      -0.02565270
C        6.95304889       1.82021669       3.11177515       0.01176110       0.01939291      -0.01101075      -7.21746325 F F F      -1.18419352       1.70620487       1.73944947
C        7.46991141       0.72918843       1.00044733      -0.00680988      -0.00739117      -0.01022298      -9.29575407 F F F      -3.50983937      -2.06170320      -0.55726267
C        2.86088479       9.52843780       5.13753786      -0.00464980       0.00863533      -0.00149461      -6.52673442 F F F       1.49469410       0.04585589      -1.08960505
C        4.32430670       1.28297315       3.76380282      -0.00666521       0.00846533       0.01079693      -7.07280144 F F F       5.58827396       2.73519940       2.33181124
50
Lattice="9.9905032156 0.0 0.0 0.0 9.9905032156 0.0 0.0 0.0 9.9905032156" Properties=species:S:1:pos:R:3:velocities:R:3:local_energy:R:1:fix_atoms:S:3:forces:R:3 temperature=4264.12919867 pressure=6166.35032065 time_step=0.5 time=40.0 energy_soap=-314.85642654 energy_2b=68.23786008 energy_3b=1.89077609 energy_core_pot=0.0 energy_vdw=0.0 energy_exp=0.0 energy_xps=0.0 virial="-20.66482166 3.10590925 7.69291097 3.10590925 -11.13818116 -9.87740968 7.69291097 -9.87740968 -10.69941427" volume=997.153669 step=80 config_type=iter_6 energy=-244.72779 stress="0.02072381 -0.00311477 -0.00771487 -0.00311477 0.01116997 0.0099056 -0.00771487 0.0099056 0.01072996" pbc="T T T"
H        6.99198929       9.40767905       5.00106041       0.08257141      -0.05719385      -0.03658407      -1.80653786 F F F      -0.87526448       0.35097105      -0.98623123
H        7.15287878       2.07414072       4.71685238       0.00339399       0.17601797       0.03461287      -2.14607684 F F F      -0.40606707       0.81348054      -0.94400033
H        7.76290490       7.44409848       8.99002749      -0.05039383      -0.00534737       0.00977819      -2.89064905 F F F       1.83693858      -2.12224060       0.85823538
H        2.62566322       3.73407630       0.80972027       0.01001300      -0.07116643      -0.03388529      -1.61901061 F F F       0.70951508       0.80440078      -0.62094971
H        6.71627085       2.76505353       8.80300160      -0.00489062      -0.00327307      -0.07298517      -2.86128421 F F F       1.70234677      -0.49035395      -2.04077036
H        6.55149981       6.00285970       4.15366553       0.13949272       0.03721139      -0.05874158      -2.74131305 F F F      -0.82151056       2.78399334       2.21880421
H        0.78418788       9.90879120       1.18240192      -0.08958147      -0.02122798      -0.01802845      -1.10250029 F F F       3.02290517      -0.95128123      -0.32729714
H        3.69103496       3.77496307       9.24049714      -0.10464553       0.05562740      -0.01722595      -2.89190222 F F F      -0.69832428      -1.51491878       1.13733553
H        6.32684101       4.70405391       2.73050767       0.02857151       0.11423126       0.03358710      -2.69003348 F F F      -0.09394849       1.55231801      -0.80279843
H        7.62846406       5.89319759       1.62504130      -0.14961390       0.07390276       0.03552486      -1.14650438 F F F      -1.07293005       0.21226853      -0.01251834
H        1.53192924       5.53155142       1.63046028      -0.07590500      -0.00614168      -0.09688675      -2.88446040 F F F      -0.05152563       0.45889998       0.25089082
H        4.27406067       2.04179263       4.96371792      -0.04097758       0.07933638       0.01160220      -2.49644369 F F F       2.08057015       0.35698319      -0.99617848
H        7.84055552       1.67598006       3.13795009       0.01442927      -0.03896147       0.04335761      -2.75251787 F F F       3.03235455       1.43115498      -0.88218060
H        5.49290124       7.37644187       6.19907806      -0.04007097       0.01109430      -0.17202147      -2.67076471 F F F      -1.08940061       0.13446107       1.25084991
H        7.48583745       2.51545650       8.28119135      -0.03010253      -0.07786418       0.02842741      -2.65419872 F F F      -2.97811374       1.12400589       1.22384384
H        6.58406280       3.22828632       3.12057647       0.06697914       0.00243618      -0.02011355      -3.99325603 F F F      -0.58764904       0.43840566       0.09876288
H        9.73828518       2.49934793       9.02386221       0.00900622       0.07771854       0.05971602      -2.41798852 F F F      -2.92183534       0.06285493       2.08393031
H        6.16451610       5.55436896       2.76443552       0.08881411      -0.05035932      -0.02922129      -2.34304619 F F F       0.74804556      -1.72929438      -1.11636744
H        8.26892613       6.76224252       9.17255921       0.05603196      -0.01825983      -0.07988137      -2.90088182 F F F      -1.65619000       2.31557829      -0.31645375
H        5.32465085       4.36241701       7.97450202       0.03109530      -0.01166004      -0.09753259      -3.08060279 F F F       0.29342247      -0.12259377      -0.69279829
H        2.94580252       5.66669709       8.92301354      -0.03936245       0.02249126      -0.02439363      -1.27703188 F F F      -0.71151676       0.22130348       1.18788748
H        8.78885428       2.51170599       9.59525690       0.13649883      -0.04324825       0.02141614      -2.55399435 F F F       3.87757337      -0.13767128      -1.76868181
H        2.12864563       6.01666651       1.41787433      -0.01244297      -0.10848723       0.03643638      -2.79270229 F F F      -0.15187794      -0.67437576      -0.27463502
H        6.93982996       1.16244428       0.26361977       0.07272317      -0.04665602       0.05857028      -3.06466521 F F F       0.12379841      -0.21592366      -0.30874110
H        9.55661601       9.25187876       2.24815736      -0.11125666      -0.01630560       0.01656878      -1.45428551 F F F      -0.07952010      -0.90661072       0.90374327
C        3.08560800       0.96414807       4.12189298       0.00653734       0.02806042       0.00828596      -6.68111611 F F F      -2.69402711      -2.74262348      -2.94364108
C        1.55151805       9.07196714       4.73396186      -0.00821831       0.00852402      -0.00185907      -6.31398481 F F F       2.35973026       2.42462000       0.46313413
C        9.09766723       0.75440376       1.01797450      -0.00751045       0.00607924       0.01045827      -5.90533126 F F F      -7.17063003      -4.55786348      -3.73571059
C        4.58786847       6.40589456       1.18703978      -0.00990007      -0.02637364      -0.00250576      -8.59538262 F F F      -3.97067560      -1.83739558      -2.12710776
C        1.45518332       0.51860698       1.84585960       0.00018098      -0.01695725      -0.02329846      -7.15379891 F F F      -6.37341089       1.38730961      -4.13424427
C        4.03320882       4.74163095       9.37005835       0.00626194       0.00289827       0.01017246      -8.08272025 F F F      -2.33834014       3.70371149      -0.29755092
C        5.27718253       7.38303978       1.69265032       0.00650356      -0.00655418      -0.00712719      -5.63370471 F F F       1.93574000       2.71813968       0.36426012
C        2.09643501       0.56039708       2.87907584       0.01087733      -0.00199286      -0.01120859      -8.88869196 F F F       5.32216159       1.16801330       6.78084699
C        3.35759973       5.76441055       0.38269146      -0.02545006      -0.01397746      -0.00450234      -7.64025842 F F F       5.54049160      -1.14018828      -0.23957007
C        8.89288595       9.54203188       0.27688452      -0.00418381       0.00400953       0.02494316      -7.02740960 F F F      -2.31017152       3.11296179       1.71680783
C        4.46186600       5.09551616       8.01507687       0.03003497      -0.00489473       0.03314750      -6.29513755 F F F       1.41969695      -0.72653527       1.53459630
C        6.55149721       9.82159264       1.88343903       0.00813129       0.01729816      -0.00264817      -7.33481637 F F F      -2.19626091      -1.49906147       3.30585425
C        6.19510233       8.06404842       3.25657779      -0.00053347       0.02001422      -0.01431973      -7.39413483 F F F      -1.49772368      -0.83680318       0.73383107
C        5.72277959       8.44191933       0.92361702       0.02816174       0.00178620       0.00584607      -8.22894122 F F F       0.16080565      -0.49333472       1.52541354
C        4.34335153       9.17940824       3.94745254       0.00319258       0.01067555      -0.02046670      -9.84055564 F F F       0.47795609       2.14612194      -0.23085377
C        3.93575024       8.82527801       5.27804277      -0.01147840       0.00047454       0.00513147      -5.51179741 F F F      -1.69114328       1.96639384      -1.59724861
C        6.33124702       0.89978600       3.14885736       0.02241977       0.00301011      -0.00917176      -7.22522319 F F F      -3.46635638      -0.76838261      -1.59485467
C        4.80640989       7.87795862       5.50357483       0.01973936      -0.03735960      -0.00492944      -8.00268161 F F F       3.99652070      -3.10828979       0.13937734
C        0.10599480       1.26595701       1.49365890       0.00729432       0.01857373      -0.00127830      -8.00971895 F F F       7.53540412       1.38485258       2.52406691
C        6.01635563       7.25708625       4.39001873      -0.01671060      -0.01185848      -0.01050892      -7.93479294 F F F      -0.53398822      -1.88649312      -1.33288253
C        6.11580898       9.47418967       3.57324701      -0.02690724      -0.01363947       0.02393080      -6.91279072 F F F      -0.07877079       0.79851067       0.27723911
C        6.89117745       2.18949168       3.13988542      -0.01096119       0.00736203       0.00914316      -6.58187289 F F F      -0.59109763      -5.29542091       3.19733286
C        7.19710623       0.31012004       0.91140459      -0.00504643      -0.02255516      -0.00085658      -8.31040105 F F F       3.90520546       1.89773623      -3.54068024
C        2.57842327       9.94625182       5.13158689      -0.02559790       0.01796369       0.00065393      -6.81660856 F F F       0.54372065      -2.19055582      -1.80100587
C        4.40496678       1.42321951       3.94697796       0.00397201       0.00321714       0.01390763      -7.17326683 F F F      -1.51663294       0.17876099       1.88890831
50
Lattice="9.9905032156 0.0 0.0 0.0 9.9905032156 0.0 0.0 0.0 9.9905032156" Properties=species:S:1:pos:R:3:velocities:R:3:local_energy:R:1:fix_atoms:S:3:forces:R:3 temperature=3415.78796455 pressure=8376.7556607 time_step=0.5 time=60.0 energy_soap=-330.01681815 energy_2b=82.4698759 energy_3b=5.54191653 energy_core_pot=0.0 energy_vdw=0.0 energy_exp=0.0 energy_xps=0.0 virial="-3.39079545 -2.86004213 -3.4020164 -2.86004213 -23.58665077 1.57467815 -3.4020164 1.57467815 -0.65153012" volume=997.153669 step=120 config_type=iter_6 energy=-242.005026 stress="0.00340047 0.00286821 0.00341173 0.00286821 0.02365398 -0.00157917 0.00341173 -0.00157917 0.00065339" pbc="T T T"
H        8.15748440       9.16346848       4.21512259       0.07635097      -0.01361497      -0.05672455      -1.71308606 F F F      -0.70798452      -1.32314279      -2.05156431
H        6.30233204       4.92463582       4.36906634      -0.03558457       0.13395396       0.00848997      -2.44645062 F F F       1.95062620      -0.83931138      -2.60932220