      50
 Properties=species:S:1:pos:R:3:velocities:R:3:forces:R:3:local_energy:R:1:fix_atoms:S:3 Lattice="9.9905032156        0.0000000000    0.0000000000    0.0000000000    9.9905032156    0.0000000000    0.0000000000    0.0000000000    9.9905032156" temperature=5991.39913675 pressure=14402.54523771 time_step=0.5000 time=0.000000 energy=-217.379283 energy_soap=-223.37217014  energy_2b=-1.02838364 energy_3b=7.02127099 energy_core_pot=0.00000000 energy_vdw=0.00000000 energy_exp=0.00000000 energy_xps=0.00000000 virial="-10.11468517         -1.12268600      2.43936161     -1.12268600    -24.64799476      6.31069803      2.43936161      6.31069803    -14.24189691" stress="0.01014356            0.00112589     -0.00244632      0.00112589      0.02471835     -0.00632871     -0.00244632     -0.00632871      0.01428255" volume=997.153669 step=0
 H              5.22137244       4.12118495       8.60465767       0.09400012       0.05938888       0.04684327      -1.97877709      -0.78246302      -2.10198407      -1.78741660 F F F
 H              4.66724685       3.94469481       4.80310620       0.05114609      -0.02119742      -0.10598393      -0.89384523      -2.61809070      -0.05402084      -2.26892071 F F F
 H              9.15188527       5.68199391       8.19398753      -0.00547290      -0.10009842       0.08705308       0.99000651      -2.44786929       0.78316305      -1.51397519 F F F
 H              8.65351173       3.03680460       0.34803213       0.08586528      -0.10178228       0.02049165      -0.54650940       0.96947394      -0.50374635      -2.46571652 F F F
 H              0.60111814       4.09839867       8.05301204       0.03537177       0.01696005       0.07663747      -0.50447127      -0.09375999       0.21877608      -2.48741069 F F F
 H              7.06610105       5.25645400       6.45095617       0.08727766      -0.10913206      -0.02903271      -1.55913450      -1.11116548      -1.17441935      -1.77233991 F F F
 H              8.45940129       2.26147261       5.59781563      -0.05369908       0.08971358       0.02445106      -0.06744621       0.40422697       0.16424720      -1.81995859 F F F
 H              2.40391358       0.69134341       6.14095836      -0.05556588       0.07957190       0.07105193       0.06348741      -0.30335901       0.44035421      -0.71944474 F F F
 H              1.82279167       7.57756706       2.06593482       0.05654306      -0.12336289       0.02025851       0.12530869      -1.68489499      -1.35318304      -2.83416560 F F F
 H              3.36730836       1.00693943       9.73946751      -0.08480260       0.09837824       0.04238891      -2.16511137      -1.74208120      -3.76534610      -2.40705251 F F F
 H              2.92865017       7.68022024       7.11915198      -0.01104553      -0.03718980       0.05927236      -0.36406799       0.23365912      -0.25128466      -0.92760710 F F F
 H              9.45284036       4.99470942       5.57938486       0.05417643       0.00545022       0.08239762      -0.47319666       0.68550455       0.24485888      -3.03081301 F F F
 H              2.47188035       5.38272026       9.67590520       0.03053932      -0.00923114       0.06793789       0.32167489      -0.23002404      -0.40871280      -2.16628632 F F F
 H              1.79716091       5.22967821       9.52347143      -0.03566483      -0.02933102      -0.04590210      -0.09103275      -0.27488341      -0.27156984      -2.73782050 F F F
 H              4.07816255       2.02819275       1.24817978      -0.07873509      -0.06732058      -0.00831884       0.84259383       1.07748563       0.17899421      -2.44476276 F F F
 H              2.57470286       4.75185754       2.49029523      -0.00128399      -0.02193227       0.07930008      -0.15350102      -0.35087615       0.07369888      -2.68975728 F F F
 H              1.05409465       9.76116564       3.10218235       0.01995661       0.00573958      -0.04025271       1.19795790      -0.40531522      -4.73220394      -2.84230244 F F F
 H              3.74828269       1.67081515       1.79828709       0.00411917      -0.02430995      -0.01252868      -0.06046750      -0.16367160       1.30175468      -2.94628690 F F F
 H              4.07275009       3.01054646       4.59043965      -0.02981764      -0.00154906       0.11245855       1.81397922       2.70924459       0.59261619      -2.22473982 F F F
 H              2.50151071       4.39469896       6.86756426       0.00945430      -0.07385963       0.02719516      -1.08855184      -0.05998966      -1.88490833      -2.01293756 F F F
 H              4.94738069       6.16462331       5.67276197       0.09990648       0.07269156       0.03115656       0.82926677      -0.00996753      -0.34889020       0.53780867 F F F
 H              9.20109007       1.87361160       0.04663682      -0.01616810      -0.04273181      -0.08338069       0.80235499       1.14466263      -2.15168082      -2.34567188 F F F
 H              9.36155892       1.13462841       5.57420857      -0.04028989      -0.14914110      -0.03564318      -1.01328874       0.50365604      -0.41403783      -1.12027509 F F F
 H              3.26819757       5.94920639       5.47503134       0.02297318       0.16103378      -0.01898471      -0.27041851       2.83067689       0.58735648      -1.27191549 F F F
 H              0.89823497       9.81121720       3.71374178      -0.10581527      -0.15561761       0.00657646      -1.43277315       0.42934930       5.54936626      -2.95880680 F F F
 H              8.88238181       5.53143916       5.77048366       0.06766108      -0.02153765      -0.03202748       1.14678049      -0.44232021      -0.19132951      -2.81091501 F F F
 H              1.64318109       4.76708793       6.16931301      -0.01630193      -0.07472761      -0.06712673      -1.18642608       0.16930362      -0.74775280      -1.58444739 F F F
 H              8.57866513       2.62033300       7.63832956      -0.02474645      -0.04201256       0.14217797       0.91331348       0.29568031       1.77610581      -1.70507016 F F F
 H              0.85133480       1.55181505       8.19737755      -0.01246550       0.01559712      -0.03913156       0.45082852      -0.19358454      -1.48854707      -1.52993041 F F F
 H              2.79896696       0.68815460       8.99294122       0.06323097      -0.01240459      -0.08900580       1.79750500       1.02077625       1.81956548      -2.74901609 F F F
 C              1.69565363       6.69057843       6.34406178      -0.03038654      -0.00236415       0.01459222      -1.62666602       2.79886581      -2.02553118      -8.34248194 F F F
 C              2.65472470       2.00188505       6.91126880      -0.00412887      -0.00434854      -0.00214959       1.83361098      -0.91342329      -0.14636385      -8.67464208 F F F
 C              3.89437354       2.39814143       6.70973418       0.01599381       0.03788719       0.03497198      -0.12500536       1.41027467       1.99456562      -7.69155446 F F F
 C              5.43266756       6.09124472       7.00753822       0.02067940       0.02163145      -0.01692297       0.82401527      -3.05197166      -1.21996322      -8.06446303 F F F
 C              0.25087430       9.09409665       6.23057531      -0.03558777       0.02241173      -0.02255416       1.03228779      -8.18450927      -1.00812083      -7.28619755 F F F
 C              0.48662048       7.60906037       5.80383306      -0.03475541      -0.00461643      -0.03338820       2.93682100       0.86931817       2.76209479      -7.13140758 F F F
 C              9.83632933       4.03963544       8.86711915       0.02207043       0.01794782       0.00466004      -0.03785933       2.55077891      -1.50928216      -8.52563951 F F F
 C              3.78098737       3.04694854       9.52774936       0.00911991       0.00014944      -0.02524378      -0.66679851       1.43094321      -2.89004473      -7.91232760 F F F
 C              4.43774379       6.83944426       7.17053121      -0.02033394       0.00001028       0.02897190      -0.99867583       0.23185175      -0.66331215      -7.51118145 F F F
 C              9.52494872       0.05058352       5.97388100      -0.00400252      -0.01494124       0.03773885       0.85971981       3.15909423      -0.50454014      -7.22148668 F F F
 C              3.34935740       7.11009819       6.18228658       0.02949046       0.00643295       0.03619872      -3.09183509      -2.82599802       0.80122792      -8.88417193 F F F
 C              2.81404025       5.47596461       1.78502263      -0.04851715       0.00135072       0.00083316      -0.89039113       7.87255531      -3.47617358      -6.97230427 F F F
 C              3.80560342       6.24723097       1.10945454       0.02818288      -0.02290998       0.00108833      -3.31974375      -2.48156257       3.26020665      -6.51058569 F F F
 C              3.99682053       3.67441354       8.27090886      -0.01272835      -0.03122051      -0.01200690       1.31421936       0.93587041       2.27451331      -6.62092192 F F F
 C              5.72213603       4.84953690       6.07965552       0.03565945       0.04452569      -0.00918154       0.20593723       1.77799316       3.26450384      -7.88687424 F F F
 C              1.40752044       1.54095662       6.71812315      -0.01320026      -0.00282487      -0.01418101       2.62969133       0.38599978       2.66168643      -8.04225428 F F F
 C              0.39995299       1.48147535       6.02914713       0.03012810      -0.01658315      -0.02739637      -5.38298203      -0.42681682      -2.69267740      -8.70758736 F F F
 C              3.15801160       4.62261149       7.65479927      -0.00791141      -0.00832998      -0.00631107       4.47134646      -0.05981999       3.25820814      -8.36835063 F F F
 C              1.52701950       6.55829229       1.52643629       0.01950644       0.00299694      -0.00270153       4.27849209      -2.76279770       2.52988767      -6.88778111 F F F
 C              9.15767997       3.04927315       9.28498995      -0.01696810       0.00442528      -0.01984344      -1.69222266      -2.27602992       1.44187499      -8.49911508 F F F
      50
 Properties=species:S:1:pos:R:3:velocities:R:3:forces:R:3:local_energy:R:1:fix_atoms:S:3 Lattice="9.9905032156        0.0000000000    0.0000000000    0.0000000000    9.9905032156    0.0000000000    0.0000000000    0.0000000000    9.9905032156" temperature=5529.94205869 pressure=38285.14194357 time_step=0.5000 time=10.000000 energy=-217.706477 energy_soap=-228.98088544  energy_2b=3.76502317 energy_3b=7.50938515 energy_core_pot=0.00000000 energy_vdw=0.00000000 energy_exp=0.00000000 energy_xps=0.00000000 virial="-21.59931274        -12.03545017      1.16252405    -12.03545017      6.65961610     -1.40080905      1.16252405     -1.40080905     16.37236448" stress="0.02166097            0.01206980     -0.00116584      0.01206980     -0.00667863      0.00140481     -0.00116584      0.00140481     -0.01641910" volume=997.153669 step=20
 H              5.30417427       4.30683685       8.29955316      -0.05314918      -0.03195890      -0.08017196      -0.39477619      -1.15979754      -0.40485578      -1.11592333 F F F
 H              4.45168485       3.03987200       4.49330844      -0.05339440      -0.05638123       0.08973226       0.96588136       2.75441978       2.38142555      -2.60333605 F F F
 H              8.87240014       5.00863753       9.25544760      -0.09043662       0.12718659       0.07900258       3.03642730      -0.59804412      -1.27167604      -1.99166737 F F F
 H              9.29588028       2.83461714       0.23774184       0.03312384       0.05290798      -0.04165983      -1.40096296      -0.50779422       0.53992945      -2.59086317 F F F
 H              0.97189913       3.95474557       8.37230157      -0.02570797      -0.03938834       0.01048565      -1.34187301       0.32826503       0.03435303      -2.81454445 F F F
 H              6.81690568       4.18207232       5.82676914      -0.10799093      -0.04314523      -0.06493465      -0.13673850       2.42316932       0.88731300      -2.56574091 F F F
 H              8.19697845       3.01237096       5.99401967      -0.01361382       0.07531043       0.04768929      -0.32237001       0.49750725       0.01555750      -1.14879679 F F F
 H              2.47222797       0.65969353       6.76019874       0.06149478      -0.09585426       0.02121963      -0.30560526       0.29868264      -1.29533255      -1.26549174 F F F
 H              2.48564914       7.28681232       2.45995199       0.04074425       0.02177843       0.01716442      -0.77669266       0.10270801      -1.12604342      -1.54334870 F F F
 H              2.41609266       1.01768300       8.68541512      -0.01460756      -0.07008252      -0.13345117       2.88889774      -0.40989774       2.53947910      -2.16341762 F F F
 H              2.64232142       7.42561272       7.31077810      -0.05705360       0.00191331      -0.00374494      -0.83710182       0.65128492       0.02737540      -1.07935088 F F F
 H              9.79838017       5.05507701       6.26035460      -0.02897830       0.02031314       0.02438008      -1.07934441      -0.21055032      -0.57129102      -2.77966278 F F F
 H              2.39295521       4.94031015       0.13052235       0.00605973      -0.06962506       0.06988512      -0.25216139       0.42904375      -0.83652755      -1.73520959 F F F
 H              2.17885085       5.20790666       9.39258118       0.06529857       0.02640213      -0.01222792       0.80221858      -0.35507518       1.22817481      -2.35918083 F F F
 H              3.66425691       1.71201620       1.34975921      -0.03063215      -0.01365126       0.01231250      -0.25309222       1.49038437      -2.94075581      -2.91941839 F F F
 H              2.66335951       5.04614373       2.47661769       0.02715543      -0.01457523      -0.00208497       0.48707522      -3.45022847       2.21760044      -1.51132324 F F F
 H              0.68618718       9.31153759       3.44175311      -0.03850796      -0.01419930       0.09978946       1.14649735       2.29470905       0.88636440      -2.97517723 F F F
 H              3.74244426       1.42320619       1.94478779       0.00568698      -0.01882319       0.01445012       0.38977844      -1.19908365       2.70124643      -2.95847831 F F F
 H              4.73431048       3.78684760       5.12565474       0.11137188       0.05685514      -0.06549321      -1.03953381      -2.40979361      -2.39085655      -2.54543244 F F F
 H              2.14598642       4.44716710       6.49956422      -0.04069076       0.08054601      -0.06961464       0.59196861      -0.38157534      -0.97409459      -1.92521896 F F F
 H              6.43165023       7.07480850       5.81635230       0.16367778       0.10328074       0.03562131      -0.92041989      -0.35739958       1.18044845      -1.46405754 F F F
 H              9.60007798       1.90981006       8.69937785       0.08687056       0.07033452      -0.14641931      -1.39913596       2.62402302       0.71221102      -2.49301336 F F F
 H              8.31300722       0.19421127       5.30376758      -0.09241706      -0.06952608       0.04760013       2.63742230       0.57240082       2.42927166      -1.97534932 F F F
 H              3.34851989       7.79261926       5.28964306       0.01620402       0.14881789       0.06385709       0.31078463      -1.80248198       3.63226763      -2.35689075 F F F
 H              0.36234737       8.74201238       3.31155092      -0.05570275      -0.13750458      -0.07897432      -1.31956578      -2.30377374      -0.29181689      -2.92728921 F F F
 H              9.63234564       5.31519910       5.54369416       0.08274096      -0.05709390       0.01988815      -0.59204315      -0.63515595       0.57255560      -2.78690191 F F F
 H              1.58246254       3.87749937       5.52147529       0.03827686      -0.10160191      -0.02148988       0.99847639       0.27594095       1.61596481      -2.19654875 F F F
 H              7.80976787       2.45917604       8.85701093      -0.17770294       0.02868020       0.01840385       3.15042152       2.59527063       0.70697063      -2.77078702 F F F
 H              0.76907525       1.61216937       7.48532342      -0.06685917       0.01615226       0.01836884      -2.41868907       0.75884526       4.14979775      -1.03816244 F F F
 H              3.34325702       1.05142860       9.04071074      -0.02780103       0.04499901       0.06297553      -2.54769727      -0.93115037      -0.25202129      -2.31708122 F F F
 C              1.34981863       6.75528483       6.41353195      -0.03485764       0.01492324      -0.00211199       0.02005009       2.53362853      -2.70575052      -7.57005226 F F F
 C              2.73431365       1.94882718       6.86679454       0.01494616      -0.00680322      -0.01117337      -0.86485871      -2.08550953      -2.88586040      -9.96333004 F F F
 C              3.98605542       2.75800009       7.10537024       0.00114022       0.02760626       0.03556381      -1.89541484      -4.66153051      -5.72902347      -8.38293858 F F F
 C              5.63622524       6.24663660       6.78129704       0.01921853       0.01497126      -0.02843628      -0.14375183       1.43065524      -0.72683400      -7.97825150 F F F
 C              0.04125847       8.79325577       6.00487236      -0.01731639      -0.05307376      -0.02345505      -2.79812197       4.96765511       0.38866175      -8.05431354 F F F
 C              0.25484123       7.62642743       5.59700363      -0.01142720       0.00470715      -0.00808866       3.41838259      -3.11007994       2.20491820      -6.00637040 F F F
 C              0.00216238       4.16900190       8.92853001       0.01005180      -0.00800230       0.00736087      -6.08217527      -2.23855784       0.09803117      -8.08020708 F F F
 C              3.86488428       3.06620595       9.29485343       0.00827594      -0.00298531       0.00135259      -0.08793684      -2.47236879      10.07160186     -10.42045073 F F F
 C              4.30379759       6.77780651       7.44052858       0.00591396      -0.01824039       0.02573743       7.12414783      -3.70727267      -0.41166699      -5.98182643 F F F
 C              9.40763668       0.19919889       6.24426882      -0.01490966       0.02695752       0.01023446       0.43318908      -2.81154515      -5.33502230      -7.59623066 F F F
 C              3.48258093       7.16110768       6.59709240      -0.00945425       0.01029186       0.03393550      -6.34838495       2.89458544      -4.60085728      -8.25586032 F F F
 C              2.41323585       5.60933736       1.72860805      -0.00544136       0.00123602      -0.00917273      16.64090999     -11.29676334       0.14818015      -6.36572345 F F F
 C              3.93937694       5.92976011       1.24823608      -0.00183377      -0.03836841       0.02439638      -3.64933872      -1.37647539       2.04498714      -7.81021824 F F F
 C              3.93027948       3.44515776       8.15538973       0.00102794      -0.00429213      -0.02345176       2.27017087       8.50600439      -2.15295754       0.87635305 F F F
 C              6.13136106       5.28586023       6.10769514       0.04453785       0.03490765       0.01093361       0.36854875      -3.61378972       0.34467017      -7.93736742 F F F
 C              1.39434498       1.56896992       6.73199152       0.00586325       0.00777461       0.00167733       2.57552123       0.22333218      -5.34981056      -8.85093142 F F F
 C              0.43721742       1.33753788       5.60585830      -0.00825290      -0.01401585      -0.04630794       0.22309103      -1.20727962       2.57003890      -7.45883144 F F F
 C              3.18334572       4.56808871       7.61696151       0.00425588       0.00044691      -0.00928289      -0.84038358       2.28612873      -1.80893238     -10.44448704 F F F
 C              1.76475505       6.48008079       1.54513739       0.00430629       0.01594034       0.00353003     -12.67015778      17.23518217      -1.33153992      -7.45019166 F F F
 C              9.03463202       2.99599412       9.17794166       0.00384760      -0.01751912       0.00402056       2.23846692      -2.88085227      -0.93586917      -9.05758366 F F F
      50
 Properties=species:S:1:pos:R:3:velocities:R:3:forces:R:3:local_energy:R:1:fix_atoms:S:3 Lattice="9.9905032156        0.0000000000    0.0000000000    0.0000000000    9.9905032156    0.0000000000    0.0000000000    0.0000000000    9.9905032156" temperature=5622.13866073 pressure=1632.22647050 time_step=0.5000 time=20.000000 energy=-220.254672 energy_soap=-221.03733937  energy_2b=-2.95198951 energy_3b=3.73465721 energy_core_pot=0.00000000 energy_vdw=0.00000000 energy_exp=0.00000000 energy_xps=0.00000000 virial="-17.56098235          9.06742319     12.14241578      9.06742319    -34.01909035      4.45588666     12.14241578      4.45588666    -16.59066349" stress="0.01761111           -0.00909331     -0.01217708     -0.00909331      0.03411620     -0.00446861     -0.01217708     -0.00446861      0.01663802" volume=997.153669 step=40
 H              5.00180160       3.77584680       7.68125726       0.01405898      -0.04438832      -0.00464012       1.65422023       0.91082935       1.58579477      -0.91005772 F F F
 H              4.65281545       3.54718524       5.42448929       0.07701316       0.08243271       0.00219025       0.35059248      -1.22600351      -3.38443609      -2.44389181 F F F
 H              8.97590622       5.39053776       9.50776622       0.09188526      -0.07300627      -0.02649215       1.85658267      -2.80078138      -1.17860568      -1.66943945 F F F
 H              9.11344218       2.62950780       0.36991121      -0.04094324      -0.08073947      -0.03079131       0.68613299      -0.95029030      -2.30439340      -2.74903478 F F F
 H              0.92038593       4.01529456       8.37639633      -0.01020677       0.05941028       0.02517013      -1.63540293       0.44795383       1.25568147      -2.65946621 F F F
 H              6.25095638       4.78976719       5.55112620       0.00037147       0.03642314      -0.07656107       0.39468376      -2.09129241      -2.70720931      -2.17196750 F F F
 H              7.88462832       4.08316620       6.52830470      -0.05772229       0.15115145       0.06515608      -1.10869997       1.13414016       0.24694386      -1.89267414 F F F
 H              3.06629820       0.13247054       6.36348084       0.05498156       0.01801162      -0.07263170      -0.33431681       2.23358344       0.17619828      -1.59735680 F F F
 H              2.35396676       7.50333595       2.02322265      -0.03609952       0.04797966      -0.07434813       3.34444104       3.83004957       1.81651668      -2.38621603 F F F
 H              3.02759510       0.58492821       8.86815038       0.07863151      -0.00709555       0.11813288      -1.10027663       1.09222947       0.51861532      -2.96110658 F F F
 H              2.12633742       7.32013969       7.29158848      -0.01660069      -0.05548082       0.01010528       0.69963029      -0.88466695       0.43565686      -1.76887471 F F F
 H              9.28784460       4.98870756       6.30384763      -0.03991607      -0.03543860      -0.03529237      -0.17139148       0.30608241       0.03928430      -2.52620178 F F F
 H              2.30124150       4.86531308       0.32449471      -0.04552353       0.02116914       0.01566188      -1.29886474      -0.06819703       0.46081846      -1.83839157 F F F
 H              2.85640580       4.96558469       9.86925207       0.06258162      -0.04549789       0.03942424       0.22312853       0.08360023      -1.40864944      -1.66055921 F F F
 H              3.44778980       1.60835334       1.47712685      -0.03050445       0.00326552      -0.01319433       0.00776037       0.02558905      -0.44110158      -2.99436882 F F F
 H              2.35326582       4.71740491       2.43865377      -0.09948202       0.02324884      -0.04809165      -0.83142525       1.53091595      -0.71402438      -2.45489197 F F F
 H              9.87129465       8.30586229       3.76379045      -0.12533018      -0.12817259       0.03383266      -0.62446372       0.05535467       0.64065058      -2.43401306 F F F
 H              3.78001454       1.28661554       2.04662995       0.01859585      -0.02333389       0.02920669       0.10394335      -0.02094672       0.11241628      -2.99058733 F F F
 H              4.82022560       3.26397270       4.41732672      -0.08091916      -0.10400952       0.01728770      -0.79942708       0.75463163       3.09874865      -2.48408489 F F F
 H              2.02720124       4.65898094       5.48159468       0.00282368      -0.05042547      -0.10904668       0.12998497      -2.11872088       0.75602854      -2.14965817 F F F
 H              7.53560889       7.57235114       6.49609472       0.07019252      -0.00317703       0.07136821      -0.39097115      -0.86104944      -0.44804218      -1.35546072 F F F
 H              9.30854798       2.68717112       7.91111403      -0.13531698       0.01551479      -0.02360442      -1.81287746      -1.68092557       1.25600972      -1.80991686 F F F
 H              8.38410347       0.01237619       6.56788002      -0.00214861       0.03776961       0.16613458      -0.73373619       1.60974458       0.13802336      -2.37129203 F F F
 H              3.71015267       8.35164845       6.96464043       0.06019073       0.05888870       0.16921721      -0.78471319       0.73504380      -0.78498966      -2.73393483 F F F
 H              0.24937145       8.24122676       3.16905298       0.04212955      -0.02548109      -0.04260072       0.85639149      -0.46943924      -1.43970559      -2.97918100 F F F
 H              9.90407663       4.66321110       5.97184396      -0.03204517      -0.05324138       0.08819536       0.16965072       0.24007215       0.02088993      -3.06428028 F F F
 H              2.15310520       3.44205721       5.73112268       0.04322701       0.04771752       0.01743232      -0.81624044       2.84624476      -1.31066708      -1.60879985 F F F
 H              7.90996742       3.24514215       9.21813468       0.18770026       0.07780630       0.02621425       1.64347719      -1.10548949      -0.86349961      -2.65544052 F F F
 H              0.48847595       1.89458047       7.65439603       0.05073288       0.00315920      -0.05584797       2.40998984      -1.16361780      -2.10432762      -1.89056084 F F F
 H              2.38231285       0.98150170       9.09484337      -0.10717635      -0.03488663      -0.03948346       1.45957215      -0.35062286      -0.51925333      -2.95728459 F F F
 C              1.03625328       6.95792572       6.30724228      -0.01781980       0.01563752      -0.00834232       8.75758101      -4.97082749       6.44651833      -8.48856284 F F F
 C              2.82454697       1.78475858       6.68316929       0.00495937      -0.02303779      -0.02022795      -0.19258013      -0.90225892       0.79118672      -7.91087701 F F F
 C              3.89218674       2.67680874       7.05701140      -0.02176590      -0.03226784      -0.02472029      -3.01645963      -3.12867316      -0.18437384      -9.51241286 F F F
 C              5.77890781       6.49684691       6.54675264       0.00988493       0.03110984      -0.01404186      -0.26843102      -0.43545975       2.75049933      -7.24374758 F F F
 C              9.69109265       8.68904235       5.85442658      -0.04438014       0.01494644      -0.01119585      -0.67472093       1.32372302      -0.59795763      -9.74815934 F F F
 C              0.28885270       7.38165966       5.54253031       0.00159662      -0.03094628      -0.00765341      -8.05528194       6.21171679      -5.12048829      -3.98987679 F F F
 C              9.88701323       4.04997075       9.02004677      -0.02209362      -0.01059169       0.01143666       0.39229527       2.93739053       0.66368453      -8.99234006 F F F
 C              3.93850079       3.00584704       9.50414255       0.00601144      -0.00125131       0.01944325      -0.46693702       2.58559606      -3.78411180      -7.12992438 F F F
 C              4.50845608       6.52843951       7.57861819       0.02173125      -0.02677868      -0.00289031      -1.54036904      -0.38778311      -4.35888413      -7.13914392 F F F
 C              9.32019399       0.32704060       6.12605015       0.00602731       0.00217382      -0.03106424       3.80808725      -2.56620742      -3.52952479      -6.96596922 F F F
 C              3.25900564       7.33701737       6.88409468      -0.02367935       0.01453666       0.03420258       2.70567531      -1.50995193       2.12931345      -7.19424348 F F F
 C              2.65908801       5.44002153       1.64704680       0.01903673      -0.01457735      -0.00499396     -11.00574647       2.72547332       1.72138565      -7.75760242 F F F
 C              3.84496629       5.54763058       1.53400831      -0.00279141      -0.03352110       0.03050060       8.52420697       2.09321636       0.19032349      -7.53932039 F F F
 C              4.03651810       3.75041177       8.14838703       0.01583922       0.03954595       0.01248870      -1.07684123      -3.26999508       0.11076459      -5.42763820 F F F
 C              6.60024871       5.49759166       6.19613180       0.04867571       0.02147416       0.01268151       0.45144307       2.65319186       2.74274972      -7.81022699 F F F
 C              1.45403501       1.65115129       6.62485955       0.00458334       0.00744806      -0.01960780      -0.68762726      -0.57661281      -1.16508302      -8.68797697 F F F
 C              0.35910622       1.13596358       5.33251691      -0.00961525      -0.02653351      -0.00399986      -0.87698565      -1.34597882       5.91968934      -6.46075990 F F F