50
Lattice="9.9905032156 0.0 0.0 0.0 9.9905032156 0.0 0.0 0.0 9.9905032156" Properties=species:S:1:pos:R:3:velocities:R:3:local_energy:R:1:fix_atoms:S:3:forces:R:3 temperature=5354.6608898 pressure=53055.85880724 time_step=0.5 time=0.0 energy_soap=-356.14852659 energy_2b=97.94983306 energy_3b=4.0129959 energy_core_pot=0.0 energy_vdw=0.0 energy_exp=0.0 energy_xps=0.0 virial="4.66437193 8.27116214 -8.37584442 8.27116214 19.96984233 1.94685209 -8.37584442 1.94685209 6.59757044" volume=997.153669 step=0 config_type=iter_4 energy=-254.185698 stress="-0.00467769 -0.00829477 0.00839975 -0.00829477 -0.02002685 -0.00195241 0.00839975 -0.00195241 -0.0066164" pbc="T T T"
H        6.63906501       8.72736405       2.22693511      -0.08535768       0.12451766       0.05491471      -2.30443593 F F F       1.59408814      -2.06028376      -0.05638457
H        2.64830661       4.19410758       3.23707972       0.00063861      -0.02650201      -0.09126841      -2.35797108 F F F       3.79838408      -2.47836794       1.02466433
H        3.39897830       9.89804616       3.14180955       0.05270294       0.02315181      -0.10489097      -2.36490133 F F F       0.50738957      -0.64496505      -0.16975699
H        9.05308739       2.84887869       5.16511122       0.02953304       0.06427590       0.06719770      -3.41270134 F F F       0.12641127       1.66892414       0.13267469
H        1.82482880       8.85364605       5.04332321       0.00946026      -0.04809649       0.01756469      -2.98106104 F F F       0.16241047       0.19258602      -0.41142167
H        7.57864060       0.76586151       3.48205429       0.00601331       0.10957080       0.13775672      -1.79068663 F F F      -0.76793633       0.70814710       1.78903980
H        7.68461231       9.24804155       9.84898762       0.02107632      -0.06053557       0.07703310      -0.56252054 F F F       0.03542070      -0.36217080       0.88136664
H        4.04781826       8.92975245       2.79008974      -0.02900329      -0.05569428       0.01642563      -1.65029582 F F F       0.30423539      -0.06058330       0.12093679
H        5.80182946       0.44271229       6.48144342       0.04124931      -0.01075533       0.04589632      -1.73483904 F F F       0.04862396       0.43588575      -0.64014914
H        8.06747440       0.19302653       2.36762004      -0.09676503      -0.02576055       0.04679707      -1.40365068 F F F       0.26091866       1.51083994      -1.27728182
H        5.80478312       5.93221455       2.34430493      -0.03845367      -0.01861230      -0.02303665      -3.01115502 F F F       2.28354752      -0.06661712       1.10799252
H        2.00877900       9.01529148       5.70955456      -0.06243576      -0.07993294       0.00847536      -3.01027791 F F F       0.12170989       0.17778302       0.38973197
H        7.25771601       1.48464766       3.89538842      -0.02894866       0.06825909       0.11918897      -3.39303833 F F F       0.13232937      -0.42508598      -0.18758846
H        6.13280474       9.65640124       7.31439817       0.04772515       0.09001923       0.03170506      -2.60292219 F F F       0.17559597       0.42446417      -0.56464242
H        4.87326820       6.66655013       6.77901757       0.07540695       0.08707306      -0.01407386      -2.97538571 F F F      -0.14853966      -0.43004616       0.37287164
H        4.87389631       8.53853247       2.35384734       0.12631090       0.02900331      -0.07902094      -3.01919349 F F F      -0.84760900       0.30902733       0.54131036
H        5.95646937       0.88292839       5.51652475       0.02949524      -0.09599342       0.02256892      -2.99535421 F F F       0.34264509      -0.78983556       1.23840985
H        6.62641282       5.66868521       2.81889556      -0.20315208       0.07100325       0.03332011      -2.41436134 F F F      -2.71876780       0.96549112      -1.42655073
H        4.52931160       6.28952273       7.33895548       0.05530116      -0.00475090      -0.01457994      -2.94072982 F F F       0.19811404       0.20066705      -0.45788908
H        7.93682952       9.78453406       7.92406536       0.08873646       0.09657909      -0.11350456      -2.63722405 F F F       2.11875240       0.48616945       0.94048638
H        8.81984910       9.95680909       8.50622886       0.01265352      -0.03297796       0.08609496      -2.38774991 F F F      -1.95100895      -0.64535786      -2.75701815
H        7.95187433       5.27438961       2.22996123      -0.02672937       0.05549785       0.03481332      -2.30405813 F F F       1.86022696       2.40883027      -0.89525095
H        6.00600228       4.87076305       4.52787605       0.09491597       0.04072198       0.16520237      -2.78994806 F F F      -1.66069100      -1.18644476       0.49199162
H        7.43379296       1.40510381       9.46931400       0.06367095       0.01320129      -0.00548359      -3.11108244 F F F      -0.18466383       3.01268276      -2.24731368
H        5.33097655       4.35311723       4.55047695      -0.10785522      -0.17796442      -0.03421942      -3.04498244 F F F       1.33615922       1.15688259       0.08039897
C        1.20175556       4.06812675       9.82212152       0.00599918       0.00893698      -0.01384509      -8.29553951 F F F      -1.62168162       3.07367398       4.51216319
C        9.46014477       3.93360854       5.23313150       0.02773869       0.00827182      -0.00610240      -8.48882306 F F F      -4.90184905      -6.07519420       1.19003115
C        1.01559646       9.85807797       0.82512430       0.01243259      -0.00686705      -0.02281595      -7.60745422 F F F      -0.69282738      -2.08168055       1.81174857
C        0.99796899       5.22968689       4.04319489      -0.03209203      -0.01795269       0.00067879      -8.76203868 F F F       1.14652619       1.46342608      -1.53250966
C        0.92341579       5.07945910       1.70951748       0.01618652      -0.01744216      -0.01611871      -8.80498520 F F F       1.55786790      -0.10200831       2.45036016
C        8.70026151       8.73197693       1.00533219       0.00769417      -0.00801612      -0.02310687      -9.57632759 F F F      -2.08601252      -1.09863639      -0.16433476
C        1.97762359       2.53654269       8.25216127       0.01842209       0.01957481       0.00666262      -8.15314891 F F F      -1.11495895       2.01224459      -0.98429510
C        1.03988833       7.42268543       1.41343882      -0.01318765      -0.01518539       0.01271329      -5.84153446 F F F       2.65143052      -4.08113721      -1.82225481
C        1.98467762       5.31885497       9.93720864       0.01624188      -0.00709155       0.00773534      -6.63004268 F F F       0.81821839       0.82697339      -0.84982031
C        2.00144639       4.96848902       3.21046950      -0.03317514      -0.00855023       0.01176441      -7.44697406 F F F      -5.03816217       2.34429105      -1.72625605
C        7.98402431       7.97030363       1.94606608      -0.01961079       0.01142428      -0.02607769      -7.78328027 F F F      -1.06153940      -0.58702941      -1.43615470
C        9.92619837       6.95631024       2.27555997       0.01889394       0.00226873      -0.00365514      -8.45073004 F F F       4.27274824      -3.35333771       2.81828288
C        1.81815710       4.17217094       7.55686898      -0.04427428       0.00149565      -0.01226861      -6.80482300 F F F       0.07645540      -1.74861537      -3.62087301
C        0.63635343       8.61745927       1.65914739      -0.00148543       0.01175278      -0.00857896      -8.11198860 F F F      -0.06587259       6.48605900      -1.39003238
C        0.36054703       4.78067881       5.13664570       0.01005977      -0.00762983       0.00860308      -3.28148077 F F F       5.78099324       1.90953084       2.69041339
C        1.86785937       6.30504371       0.92458066      -0.01300641      -0.03956554       0.00250038      -7.62383004 F F F      -0.96074887      -0.18930034       0.40271257
C        8.41466693       0.21911424       0.78260087       0.00004084       0.02345902      -0.00912103      -6.67311631 F F F      -1.18753391      -0.20933734       2.36711503
C        9.71170773       0.66226789       0.93661671      -0.03031305       0.02608462       0.00917044      -7.57388402 F F F       2.94482357       3.09745634      -2.31959371
C        0.54140587       1.63920580       0.04644670       0.02196860       0.00241355       0.00081739      -9.69554836 F F F       0.26587507       1.68378956       0.09975711
C        2.28109379       4.90396282       8.56129922      -0.00240144       0.00356161       0.01858458      -8.23277977 F F F       2.03184786       3.37412487      -0.25927581
C        7.30329033       0.77045287       0.25712988      -0.00501085      -0.01907303       0.00277286      -8.00681412 F F F       0.25349628      -1.88898749       1.56913500
C        1.60479601       3.52695583       1.63470040       0.00451013       0.01719156       0.03562988      -7.09577724 F F F      -1.57729394       1.06990571      -2.20577561
C        1.54233937       4.37698038       6.22106805       0.03441581      -0.01580069       0.00667767      -9.74942782 F F F      -1.71773265       0.26274994      -0.43095405
C        1.22222075       2.85462344       9.48155222      -0.00220253       0.01143210       0.00527682      -5.25180849 F F F      -0.51898540      -8.53472326       0.21349452
C        8.75254683       6.55869867       1.94970754      -0.00425187      -0.00448100      -0.02867355      -7.04301395 F F F      -6.38283037      -2.16286018       0.59628853
50
Lattice="9.9905032156 0.0 0.0 0.0 9.9905032156 0.0 0.0 0.0 9.9905032156" Properties=species:S:1:pos:R:3:velocities:R:3:local_energy:R:1:fix_atoms:S:3:forces:R:3 temperature=4412.5023462 pressure=-8529.85313076 time_step=0.5 time=20.0 energy_soap=-348.50722611 energy_2b=95.48444411 energy_3b=0.74513902 energy_core_pot=0.0 energy_vdw=0.0 energy_exp=0.0 energy_xps=0.0 virial="-18.94228302 -2.76024131 -8.38904786 -2.76024131 -23.79462618 -3.99347265 -8.38904786 -3.99347265 -29.08464232" volume=997.153669 step=40 config_type=iter_4 energy=-252.277643 stress="0.01899635 0.00276812 0.00841299 0.00276812 0.02386255 0.00400487 0.00841299 0.00400487 0.02916766" pbc="T T T"
H        5.10632103       9.54525852       2.16677869      -0.02459117       0.02432067      -0.02749742      -2.33773356 F F F       1.63146613       0.89137927       0.60495987
H        2.35812765       5.28692626       3.94351815      -0.11735321       0.07023268       0.02591392      -2.00376303 F F F       0.90877715      -1.14613674      -2.88353015
H        3.86962877       8.89121335       2.60721072      -0.03284749       0.03889269       0.07181934      -2.10914087 F F F       0.48397485       0.79326987      -0.69072896
H        9.22833650       3.64786376       6.46396714      -0.00557081       0.03248586       0.00993319      -2.70157524 F F F      -0.88567240      -0.67539332      -2.74698729
H        1.91960412       8.16849760       5.85531666      -0.02848597      -0.03034814       0.06824700      -2.95883034 F F F       0.48117671       0.43462111       0.36549760
H        7.47758603       2.65993566       6.71650997      -0.04285129       0.06000028       0.13786100      -2.98445039 F F F      -1.08741004      -0.03040199      -0.83499194
H        7.60152203       7.22998730       9.04049232      -0.01176519      -0.08020138      -0.05624605      -0.94453509 F F F       0.19661228       0.48316730       1.05742926
H        3.40561252       9.36507002       2.15027543       0.02115122      -0.06498847      -0.12006154      -3.05596720 F F F      -1.09449182      -0.52874778       0.24674939
H        6.89535327       0.19606398       6.95320441       0.09289754      -0.06270009      -0.01091040      -2.29130983 F F F      -0.04258103      -0.99308454      -0.32130070
H        6.52705675       0.64208206       2.25466289      -0.07504352      -0.02209056      -0.10752533      -1.49416385 F F F      -0.29329675      -1.15897173      -1.43656394
H        4.01918108       6.72453165       3.12329522      -0.20298258       0.08067261      -0.01819279      -2.88300091 F F F       0.30421000       0.15774669       1.19753862
H        1.38242463       7.82077071       5.56130502       0.02021429      -0.03459310      -0.02540896      -2.93270291 F F F      -0.42140378      -0.38686569      -0.23719875
H        6.77152828       2.69986003       6.20081621       0.02270291       0.04062574       0.13572040      -2.95795932 F F F       0.83708600       0.71375770       0.55675619
H        6.87107979       1.30786267       7.86505819       0.00698503       0.03723622       0.00096473      -2.48885062 F F F       0.10886751      -0.45152734       0.45425566
H        6.08319642       7.48230272       6.93919564       0.06044563       0.00880075       0.00315951      -2.81969524 F F F       0.42744582      -2.12051677      -1.33398208
H        7.70589028       8.35130592       2.65152795       0.02236104      -0.06746324       0.11696957      -1.96798390 F F F      -1.01002758       0.03687110      -1.66745881
H        6.65343658       9.30949854       6.84568019       0.04285270       0.03668036       0.13836819      -3.30759419 F F F       0.60746424       1.98761941       0.40428619
H        3.82031480       6.64793590       2.44579380      -0.01408982       0.03633098       0.03756500      -3.02221310 F F F      -0.49870536      -0.18047645      -1.25588668
H        6.27160278       6.91029153       6.31155334       0.09457117       0.03764863      -0.05163923      -3.07756164 F F F      -0.46982213       1.03459892       1.60961842
H        9.04581197       0.08501491       7.96361967      -0.06529840       0.01727870      -0.08001273      -2.82427960 F F F       1.52988590       2.02602549      -1.71752419
H        9.58686063       0.61422746       7.41801237       0.11390412       0.03236933       0.07040747      -2.67222900 F F F      -2.32883077      -2.08497483       2.03882412
H        7.68537224       6.31368453       2.19057840       0.05159604       0.05607848      -0.09837720      -2.35545736 F F F       0.59068234      -1.25387292      -0.51612097
H        4.49515754       3.30207895       5.56765202      -0.01925988      -0.00163776      -0.01296949      -1.18744043 F F F       1.90964350       1.76035504       0.25681080
H        6.49370907       1.58294562       9.77310642      -0.04763824      -0.07301907       0.06223430      -3.15433814 F F F       2.15383647      -2.31522250       0.94657963
H        5.89247962       4.19547107       5.80102907      -0.07765252      -0.03125596       0.11982177      -1.61861489 F F F      -1.82378168      -1.86244246      -0.14943882
C        1.03394222       4.12792215       9.80287882      -0.01847478      -0.01438687       0.01335473      -9.42307982 F F F       0.11387591      -1.64110027       3.62989470
C        9.70580210       3.82596153       5.31920315       0.02307763       0.00827632       0.01502768      -7.11122926 F F F       0.89559516       2.18565775       3.10694654
C        1.12875543       9.86463627       0.48326689       0.00690895       0.02356135      -0.02108285      -8.46578837 F F F      -0.29763792      -0.03208176       1.33582876
C        0.41335823       5.09964536       3.97084361      -0.02100605      -0.01204773       0.00222682      -8.77745041 F F F       1.66770301      -2.50683479       0.34363201
C        1.12553628       4.85374872       1.63879084      -0.00818751       0.00327582      -0.00331936      -6.77897346 F F F      -0.80966226      -0.94386041       0.26501224
C        8.73260719       8.86036383       0.71385761       0.00811427       0.02229655      -0.01226146      -9.21582017 F F F       1.92137257       0.72292260      -0.17043834
C        2.03228408       3.14096874       8.30169918      -0.01171920       0.03117837      -0.00085988      -7.15138809 F F F      -0.48040692      -1.64961982      -0.34068918
C        1.04236701       7.35308410       1.40214898      -0.00074814       0.01732349      -0.00434246      -7.49407409 F F F      -1.15713385       1.56778688       0.44235856
C        2.43558184       5.26073751       9.87178610       0.01917307       0.00246609      -0.00933290      -7.43923662 F F F      -2.50668240       0.20991667      -1.58067086
C        1.60313233       4.64170669       3.05076169      -0.00774578      -0.01254452       0.00792215      -7.24400992 F F F      -1.60404491       2.18382160       4.70219664
C        7.91738013       7.86674788       1.35946885       0.01469493      -0.00488012      -0.03184506      -6.89481078 F F F      -0.02349705       5.79188907       0.49448437
C        9.89630774       6.57058274       2.43469542      -0.02367164      -0.02388934       0.00197998      -9.04555622 F F F      -1.64753634       1.85615079      -2.85166185
C        1.30829380       4.07582478       7.56257344       0.00388519      -0.00321260      -0.00021391      -7.26383019 F F F       3.83538206       1.84097600      -2.05172646
C        0.54613154       8.76085342       1.28830559      -0.01196873      -0.02343478      -0.02127432      -7.85880429 F F F       0.32440258      -0.34959917      -2.41370487
C        0.81055336       4.69905637       5.60680615      -0.00964368      -0.00690011      -0.00028068      -5.60614661 F F F      -2.00445851      -0.93964284      -2.85301964
C        1.63115577       6.00431943       1.16938929      -0.00170648       0.01254256       0.00636524      -7.56528825 F F F       1.56123974       1.78458387      -2.19294406
C        8.46749567       0.28241017       0.79512273       0.00069718      -0.00322594      -0.00437722      -6.79714350 F F F      -1.80203769       2.18520554      -1.78205262
C        9.64809633       1.33196844       0.82945380      -0.00175728       0.02465359      -0.01524343      -8.54995632 F F F      -5.92273499      -3.01475715       1.43144278
C        0.80703217       1.51434535       0.29739441       0.00815284      -0.02096081       0.02303318      -5.75932177 F F F       4.77308222       1.17481632      -1.98573865
C        2.29576641       5.07850464       8.43267153      -0.00159794       0.00742260      -0.02730654      -7.63535455 F F F      -0.16793895       0.03600754       0.60906007
C        7.26576556       0.64905285       0.14628568       0.01096555       0.00314688      -0.00254941      -7.55261764 F F F       0.20038485       1.63669987       1.38843584
C        1.60488477       3.52576090       2.17725849       0.00350304      -0.03994916       0.02119485      -7.18628270 F F F      -0.23315874      -1.06749727      -2.02770760
C        1.97989279       4.15600765       6.06229920       0.02787705      -0.01506796       0.00822101      -7.58035730 F F F      -1.38382149       0.45040507       2.60186585
C        1.36121609       2.66939674       9.57705222       0.01917003      -0.00121135       0.00730678      -7.67073662 F F F       0.12819086      -0.56833981       2.04940519
C        8.57085346       6.82085601       1.70799610      -0.00984882       0.01368011       0.01484728      -8.05899539 F F F       2.40441752      -6.04428310       3.90219814
50
Lattice="9.9905032156 0.0 0.0 0.0 9.9905032156 0.0 0.0 0.0 9.9905032156" Properties=species:S:1:pos:R:3:velocities:R:3:local_energy:R:1:fix_atoms:S:3:forces:R:3 temperature=4552.8236719 pressure=22896.80606282 time_step=0.5 time=40.0 energy_soap=-350.78785587 energy_2b=93.85023915 energy_3b=1.79301783 energy_core_pot=0.0 energy_vdw=0.0 energy_exp=0.0 energy_xps=0.0 virial="4.33368167 -3.71885236 5.73267627 -3.71885236 -20.24777887 18.87792388 5.73267627 18.87792388 0.99247063" volume=997.153669 step=80 config_type=iter_4 energy=-255.144599 stress="-0.00434605 0.00372947 -0.00574904 0.00372947 0.02030558 -0.01893181 -0.00574904 -0.01893181 -0.0009953" pbc="T T T"
H        6.01572671       0.59027832       0.96892575       0.04451275      -0.01736354      -0.15000402      -2.47409478 F F F       1.50739553      -0.05456291      -0.38969569
H        2.43674090       4.48222881       3.48139867       0.00750938      -0.12799602       0.07944493      -1.79282034 F F F      -1.11318883       0.88681269       0.33153430
H        2.74435038       9.27986362       1.07697510      -0.04477068      -0.07161140      -0.05876393      -3.22276209 F F F      -0.10900595      -0.04827267       0.16578844
H        8.87720626       3.48112952       5.14040260       0.02057602      -0.01289246      -0.04541124      -2.65657338 F F F      -2.91509291      -1.93669708       0.02631774
H        1.32650696       7.36021438       6.09321821      -0.01263980      -0.05015506      -0.01483244      -3.05094365 F F F       0.02520323      -0.16487628       0.77175249
H        6.49053228       3.70852534       8.81311694      -0.06025205       0.10655113       0.02117085      -2.98266630 F F F      -0.15612643      -0.01714195      -0.45682564
H        7.46711516       6.54500457       9.04466528       0.00487442       0.01331455       0.03561116      -1.17865329 F F F       0.18670712       0.43491819       0.29428203
H        3.40511138       9.21978632       1.70716910      -0.02697999       0.10576155      -0.07818741      -0.94020097 F F F      -0.12761112      -0.29245861      -0.15077521
H        7.56083612       9.08168490       8.53916342       0.04436995       0.03264199       0.14533133      -3.05522085 F F F       0.46604888      -0.03729412      -0.60477885
H        4.43123112       9.19016605       1.29983648      -0.04950234      -0.01292686       0.04415277      -2.92227017 F F F       1.11595201       0.48124809      -0.00440038
H        1.70013047       7.57423938       3.34293128      -0.01446616       0.03771441       0.08646842      -3.21729548 F F F      -1.04034725      -0.17116764      -3.14421338
H        2.02779371       7.61235667       5.95370824       0.02365623       0.01120698       0.06988861      -2.71629274 F F F      -0.12553901      -0.04978416       1.20856487
H        6.98550107       4.28550623       8.68572424      -0.02456640       0.08271843       0.14828987      -3.13824435 F F F      -0.17733791       0.41794998       0.01249619
H        7.48948746       1.68933838       9.24213909       0.04702273      -0.03111965       0.13840718      -2.87130331 F F F      -1.37962088      -0.74061448       0.82883192
H        7.88437714       6.99723585       6.60705183       0.09850561       0.00553044      -0.01957571      -2.99068074 F F F      -0.27547722       1.81808218      -0.26140322
H        7.90907279       6.66827077       2.97847889      -0.09641244      -0.07788176       0.06829530      -3.04017250 F F F      -3.36331422       0.95075807       3.57645047
H        7.91189658       9.59313226       8.05092994       0.00920283      -0.11096600       0.02128405      -3.09605496 F F F      -0.16132555      -0.76051967       0.39560013
H        1.96707525       7.61625849       3.95893971      -0.14781735       0.06268417       0.03949142      -2.48696946 F F F       1.52667479       0.26660300       1.17356050
H        7.80216801       7.74376567       6.25833302       0.06376905      -0.01267537       0.02660084      -3.00130371 F F F       0.17970490      -1.58492116       0.90212808
H        0.33743423       0.94331532       8.63330058      -0.02397937      -0.00175707       0.06091130      -2.33625861 F F F      -2.57503161       0.58053067      -5.41845505
H        9.79261466       1.15739968       7.85205056       0.12729803       0.08885091       0.00565400      -2.63778634 F F F       1.76836134      -0.96285151       3.04123571
H        7.87487341       6.25912191       1.38154876       0.00181559       0.05882420      -0.01233071      -2.25080178 F F F      -3.68876954      -4.63421658      -4.10050453
H        4.84765436       3.71915512       7.14530523      -0.07449892      -0.04630893       0.13666204      -0.93215574 F F F      -0.51508864       0.13926819       0.15438702
H        6.19966551       0.59831010       9.51213149      -0.03345343      -0.05112942      -0.03749706      -3.12740403 F F F       1.09542227      -0.42729456       0.47547040
H        2.99782419       3.54554275       6.13465785      -0.04939062       0.04885383      -0.08024124      -1.89812005 F F F      11.11851332      -6.38076746      -1.43082974
C        0.82148450       3.62372543       0.54958994       0.00152587      -0.02154467       0.05313496      -9.03131438 F F F       1.10911819       2.88373841       1.43004221
C        9.67973280       3.90288027       5.65356250      -0.00745064       0.00878891       0.00282192      -6.64263220 F F F       4.70595726       2.95988038      -2.15393300
C        1.23919133       0.02096103       0.21265905       0.00204032      -0.00987943      -0.00457172      -8.54174466 F F F      -0.41640058      -0.00958544       2.06119009
C        0.23539823       4.45636340       4.17453516       0.00099922      -0.04225803       0.01995173      -7.92620917 F F F       2.25365705       0.74504039       0.41646713
C        1.06305324       4.88786915       1.58147737      -0.00199289       0.00708618      -0.00946577      -8.34395121 F F F      -0.36487232       0.71944169      -0.29259525
C        9.18473040       9.07006593       0.56349033       0.01285583       0.01331307      -0.00460489      -6.20695469 F F F      -7.26451842       2.95567845       0.39193973
C        1.89689032       3.28543998       8.53805468      -0.00598976      -0.01052353       0.01850963      -9.76923558 F F F      -0.18669041      -1.25270027       0.50923762
C        1.08044885       7.45333323       1.25312947       0.00148868      -0.00521744      -0.01518614      -8.49058286 F F F      -1.23200862       0.60121713      -1.60251568
C        2.35980982       5.40418163       9.48088083      -0.02304693       0.01606863      -0.01363784      -8.84150295 F F F      -0.67608085       2.89924963       9.76153106
C        1.16558814       4.48737097       3.10068186      -0.01285657      -0.01308652      -0.02160014      -7.18307336 F F F       2.41785783      -1.23010778       0.00336430
C        8.32605863       7.95949547       0.77492757       0.01880023      -0.00773217      -0.01540524      -9.40936800 F F F      -1.03435959      -0.68328408       2.20230658
C        9.58319825       6.21482554       2.32299491       0.00399031      -0.01489350      -0.00898913      -7.93125442 F F F       0.16307010       2.03676147      -1.32440255
C        1.66383129       4.38509807       7.37974838       0.02254736       0.01867329       0.01272386      -6.18775269 F F F       0.29312644      -1.62488892       1.98916041
C        0.39993414       8.62905558       0.57951602       0.02321550       0.00282385      -0.03771942      -7.16274629 F F F       8.67527239      -0.89392813       0.82793821
C        1.08579009       4.67073491       5.55406680       0.01553569      -0.00762498      -0.00023978      -8.28001382 F F F      -1.72520058      -2.02704244       0.08071839
C        1.64438737       6.20304348       0.99843263      -0.00247832      -0.00271398      -0.01940314      -7.25298194 F F F      -0.23633645      -2.15606286      -0.60569005
C        8.59285972       0.56201014       0.59951104       0.00940688       0.00540445      -0.01232847      -6.46995515 F F F      -1.07598841      -4.26796357      -0.11777890
C        9.40045639       1.62794609       0.63446661       0.01125290       0.01832790      -0.00542557      -9.33025598 F F F       3.89162091       1.71354830       1.74875633
C        1.16315965       1.47144783       0.55425420       0.00767247       0.01146611       0.00591270      -7.53298040 F F F      -1.07490405      -3.65345723      -0.08409739
C        2.23826808       5.25421559       8.26216460      -0.00380049       0.01020410       0.00510946      -5.92249310 F F F      -0.57073448      -1.00894262      -5.59832167
C        7.26792616       0.79343980       0.09244077      -0.01648643       0.01418905      -0.00896883      -8.07282196 F F F      -2.67577775       1.59395350      -1.70680711
C        1.49810569       3.12759101       2.42382124      -0.01717311      -0.00177309       0.00960299      -7.73065990 F F F      -1.63070199      -0.50532611      -1.03906289
C        2.22020603       4.00354658       6.17966015       0.00454112      -0.00317413      -0.01303146      -7.34698802 F F F     -12.16704981       7.27304105      -0.35586587
C        1.61942271       2.62949387       9.92802518       0.00368068       0.00301286       0.01896508      -5.28346268 F F F       0.02316235       2.20164761      -1.92729434
C        8.16079691       6.92229264       2.02300708      -0.03435008       0.00855118      -0.00920462      -6.23661382 F F F       7.53167546       3.01736118      -2.01080593
50
Lattice="9.9905032156 0.0 0.0 0.0 9.9905032156 0.0 0.0 0.0 9.9905032156" Properties=species:S:1:pos:R:3:velocities:R:3:local_energy:R:1:fix_atoms:S:3:forces:R:3 temperature=4568.37857687 pressure=13407.35211537 time_step=0.5 time=60.0 energy_soap=-366.9712603 energy_2b=106.19769812 energy_3b=2.09549708 energy_core_pot=0.0 energy_vdw=0.0 energy_exp=0.0 energy_xps=0.0 virial="-13.08587302 -3.13996462 -0.48199879 -3.13996462 -19.22953806 5.1613605 -0.48199879 5.1613605 -0.52123572" volume=997.153669 step=120 config_type=iter_4 energy=-258.678065 stress="0.01312323 0.00314893 0.00048337 0.00314893 0.01928443 -0.00517609 0.00048337 -0.00517609 0.00052272" pbc="T T T"
H        6.71549147       0.54262171       0.60374625       0.04532427      -0.05558298       0.05132423      -2.88907690 F F F      -3.99713604      -7.15826325       7.98926982
H        3.29998124       2.65820740       4.56355039       0.03644225      -0.03709189       0.08164866      -1.50904594 F F F      -0.21201500       1.86566841       1.09735471