      50
 Properties=species:S:1:pos:R:3:velocities:R:3:forces:R:3:local_energy:R:1:fix_atoms:S:3 Lattice="9.9905032156        0.0000000000    0.0000000000    0.0000000000    9.9905032156    0.0000000000    0.0000000000    0.0000000000    9.9905032156" temperature=6476.49482773 pressure=19919.40610920 time_step=0.5000 time=0.000000 energy=-213.208791 energy_soap=-241.97118705  energy_2b=25.21690352 energy_3b=3.54549223 energy_core_pot=0.00000000 energy_vdw=0.00000000 energy_exp=0.00000000 energy_xps=0.00000000 virial="-8.75882827           4.42710379     -0.64860613      4.42710379    -37.25504660     -4.30449234     -0.64860613     -4.30449234      1.16501871" stress="0.00878383           -0.00443974      0.00065046     -0.00443974      0.03736139      0.00431678      0.00065046      0.00431678     -0.00116834" volume=997.153669 step=0
 H              3.71690865       2.24349468       5.02841674      -0.01000418       0.14583309       0.07681457      -2.84311220       0.14107910      -2.29031788      -2.46872022 F F F
 H              5.64864462       9.58555650       9.34588660       0.09322851      -0.02807416       0.03605617      -0.49068140      -1.35370774       0.57161121       0.14028399 F F F
 H              2.13179246       9.56812483       4.49793203       0.08319380       0.02461744       0.17817897      -0.52761514      -2.22396507       0.56214433      -3.09035955 F F F
 H              9.10631586       9.63059706       9.18547114       0.02701918      -0.02148148       0.00282449      -0.40116351       1.15855355       1.62457451      -1.72381247 F F F
 H              3.22591210       5.17645128       2.47377446       0.02539467       0.02206783      -0.12453754       2.11794030       3.14255319      -0.98907649      -1.85259434 F F F
 H              1.12742967       4.52721153       2.77146400      -0.00707454      -0.01073029       0.05400953      -0.40124904      -1.01554327      -1.20140768      -0.37503181 F F F
 H              2.31134041       0.24554206       4.37609182       0.09297187       0.05022262       0.05520150       0.45465193       1.16790345       0.28901728      -2.77021226 F F F
 H              6.09546594       4.84332225       0.33581937      -0.08882646       0.02348805      -0.08736508      -0.40901037      -0.45110590       2.52446298      -1.73126787 F F F
 H              2.83882523       2.22424148       4.41435672       0.08181008       0.05549336       0.02925106       3.39674535       0.87074778       1.82419760      -2.69433240 F F F
 H              0.63747965       3.03327485       9.97512899      -0.07120278       0.01483060       0.04242561      -0.62271620       1.08107781       0.65966631      -1.23179568 F F F
 H              2.39568620       4.50969941       3.28504533       0.02385868       0.04946033      -0.07659295      -0.85988139      -0.77793473      11.48217449      -1.08251314 F F F
 H              6.37529606       3.29706209       5.63586899      -0.05690813       0.12303298      -0.11542920      -0.22355259      -0.27864103       0.12747525      -0.51770471 F F F
 H              5.66684371       5.16582599       3.49561512      -0.02367891      -0.10503695       0.00255228      -0.56834389      -0.54212126       1.03904825      -1.32679545 F F F
 H              7.92461266       4.53791823       9.16740551      -0.00149141       0.08031139      -0.04590494      -0.39242145      -0.49587011      -1.04936310      -2.67608249 F F F
 H              1.06336703       4.71206928       7.39298016      -0.07708069       0.07205504      -0.02554700       1.23865825      -0.58284168       0.10313712      -2.94799355 F F F
 H              1.77267753       4.38362901       7.47139343      -0.05054925      -0.06544062      -0.06160552      -1.21740378       0.56938590      -0.16530955      -2.95584542 F F F
 H              6.78437782       6.98356040       7.00039635      -0.03430888      -0.06815933      -0.05031481      -1.73611821      -3.84005122      -0.67199723      -2.64283064 F F F
 H              8.06418566       9.31753530       1.09735553      -0.06895284       0.07884158       0.01987568       0.32945569       2.56111617      -1.23105423      -1.79056838 F F F
 H              1.65145452       1.75363337       2.09585217      -0.00908521      -0.02186096       0.06235143       0.55288231      -1.40839802       1.27004229      -2.88246512 F F F
 H              1.51237035       8.74869872       0.79589621      -0.06391013       0.00236853      -0.06092211       0.83119105      -0.25853550       1.40036765      -2.40004947 F F F
 H              6.80631371       0.94449591       4.44111471      -0.02224020       0.02874016      -0.00366153      -1.06716962      -0.16038201       0.58679527      -2.96799958 F F F
 H              7.54279783       4.03150510       8.72496702      -0.06292905      -0.06406030      -0.05603350       0.32881400       0.53324770      -0.03278227      -2.91881942 F F F
 H              3.93029366       4.88494872       1.53961143       0.09061493      -0.03610832       0.00972351       0.70313270      -0.48980192      -0.55829670      -1.83809476 F F F
 H              5.20996099       0.58156666       7.94723706       0.00263346      -0.08937466       0.06010955       1.63073832       0.97047281      -1.40093308      -2.37808102 F F F
 H              6.24975006       0.63631779       4.89503604      -0.02134902       0.07659989       0.01919012       0.72618691       0.74257020      -0.77305721      -2.95036472 F F F
 H              0.56086081       8.80781089       9.67750861      -0.10147094      -0.01479090       0.00410795       0.00129059      -0.15747965      -1.26757651      -2.38129013 F F F
 H              5.56464744       2.10338003       7.99988531       0.04842764       0.03652282      -0.10155794      -0.10690766      -0.75421136      -0.30464932      -1.59273211 F F F
 H              3.63550550       1.21008140       8.41790665       0.02394324       0.04406808      -0.06461143      -0.28178388      -1.37320896      -0.64337463      -2.60926326 F F F
 H              1.75881252       0.98790987       2.57465010       0.02979634      -0.01221600      -0.01965871      -0.26534997       2.60913676      -1.94532365      -2.84498704 F F F
 H              6.37520332       6.08763010       6.84153535      -0.11839563      -0.25075755       0.09913246       1.81464300       3.58051621       0.79305288      -2.66227435 F F F
 C              8.20227627       1.99124004       0.50051566       0.03539189      -0.01495519      -0.01499660      -0.03569777      -0.65078731       0.75747511      -6.79783605 F F F
 C              8.81571673       3.76944988       0.97406983      -0.03726428      -0.03549479       0.01452131       0.63915040      -0.74756842       0.96279812      -9.38245968 F F F
 C              6.03531179       1.19728012       0.68722667       0.01077914       0.00811009       0.00263010      -0.28663043      -0.34150638       0.99668886      -9.37152281 F F F
 C              2.54773202       4.39712432       2.41271215      -0.00443530      -0.01771575      -0.01484179       2.68678341      -2.70350770      -5.92788329      -8.33881098 F F F
 C              0.80451802       5.30264291       0.98931112      -0.01751585      -0.06453554       0.00050068       0.33919580      -0.60806567      -0.31852585      -8.07702679 F F F
 C              6.08960727       4.07427244       1.70245370      -0.02790318      -0.00083158       0.01903217       2.06057518       0.90018966      -0.28048167      -9.14825717 F F F
 C              4.93979059       9.65381815       0.60416675      -0.00493829       0.02823352       0.01338326      -0.16832609       0.47848647      -0.77447961      -7.99948960 F F F
 C              6.54199831       5.35002142       2.85249066      -0.04739243      -0.01385136       0.01612211      -1.16536362       2.41428636      -1.81429111      -7.27935215 F F F
 C              0.19933130       4.04373965       0.80761732       0.02162745       0.04340546      -0.00186124      -0.87609115      -2.45013997      -1.24985453      -6.81071931 F F F
 C              8.44877316       0.66730301       0.39453795      -0.00450603       0.04229532       0.01055039      -0.05555232      -2.00403849      -0.69984654      -7.94324990 F F F
 C              1.80410915       8.48315141       9.74898086      -0.00195921      -0.00372488       0.00466962      -4.80482810       0.10465417       1.31577947      -8.20360681 F F F
 C              4.06887531       9.03431817       9.26803305      -0.02038603      -0.00416937       0.00330622       1.66595242       2.07593905      -0.07522860      -8.13478801 F F F
 C              6.54954350       6.81207027       3.01057995      -0.01379361      -0.02372990      -0.01359136       0.59485972      -4.45176076      -1.26331510      -5.61559672 F F F
 C              4.18591600       0.27510616       8.00151997       0.03210619      -0.00161604       0.01547449      -1.03068203       0.71933073       2.43987509      -7.80477645 F F F
 C              6.12518481       2.48097733       2.02994074       0.00565371       0.01600557       0.02069947      -2.23589376       2.09707709       0.62690165      -5.47905240 F F F
 C              1.64032713       4.07416817       1.64715899      -0.00530429       0.01352819      -0.01974784      -4.69563715       1.30837405      -1.57490636      -7.65300966 F F F
 C              2.77050206       8.78562022       8.99806232      -0.01902399       0.02584557      -0.00992066       2.71991686       0.37536879      -1.14532747      -6.02588432 F F F
 C              4.61858100       2.23136470       2.48330032       0.04344661       0.01259493      -0.01204521       2.74524164      -0.87372800      -1.27529806      -6.35411630 F F F
 C              5.04241895       0.39617375       1.79563742       0.02320002      -0.00692760       0.00021430      -0.36490374       0.64737929      -0.94142265      -6.04372857 F F F
 C              7.32101581       2.79865451       1.33940848       0.05463476      -0.01427905      -0.02216297       0.55608065       0.74545583      -0.09190534      -6.58091027 F F F
      50
 Properties=species:S:1:pos:R:3:velocities:R:3:forces:R:3:local_energy:R:1:fix_atoms:S:3 Lattice="9.9905032156        0.0000000000    0.0000000000    0.0000000000    9.9905032156    0.0000000000    0.0000000000    0.0000000000    9.9905032156" temperature=5800.79014797 pressure=39923.39386142 time_step=0.5000 time=10.000000 energy=-212.331596 energy_soap=-247.42465011  energy_2b=33.69806272 energy_3b=1.39499187 energy_core_pot=0.00000000 energy_vdw=0.00000000 energy_exp=0.00000000 energy_xps=0.00000000 virial="8.73355466            9.00141506     -5.88180063      9.00141506      4.15157357     -5.77303334     -5.88180063     -5.77303334    -11.82460390" stress="-0.00875848          -0.00902711      0.00589859     -0.00902711     -0.00416342      0.00578951      0.00589859      0.00578951      0.01185836" volume=997.153669 step=20
 H              3.40281103       3.66716147       5.39130577       0.01217830       0.08525726      -0.01893662       1.48342580      -2.01142513      -1.53576882      -2.49669509 F F F
 H              6.47490606       8.89720777       0.06703735       0.06106900      -0.07278343       0.09056608      -0.68073876       0.72669298       0.00682211      -1.33451813 F F F
 H              3.06064410       0.16715408       6.01566664       0.09962780       0.07300336       0.16239360       0.08202090      -0.04854933      -0.87443783      -2.95961008 F F F
 H              9.48130792       9.43731954       9.71833976       0.04328605      -0.02463431       0.07011873      -0.55558934      -0.78673197      -1.16883831      -2.51441265 F F F
 H              3.81938116       5.56029371       0.99252978       0.06220938       0.00963694      -0.12623217      -0.18408118      -0.61258975       0.70490645      -1.55237757 F F F
 H              0.99945285       4.11922753       3.04806743      -0.00788210      -0.04963400       0.01954220       0.27756415      -0.04638398      -0.51359088      -0.51514055 F F F
 H              3.04430627       0.23253121       5.22483493       0.06133109      -0.01159096       0.07103716      -0.00815217       0.11124934       0.86984690      -2.99137807 F F F
 H              5.43003682       4.78603718       0.39220010      -0.02385555      -0.02822389       0.04962136       0.90071519      -0.27808266      -0.26685715      -1.70065898 F F F
 H              4.04078696       2.98355978       4.87849556       0.07940548       0.11518093       0.08791657      -1.90156328       1.25758423       1.88671031      -2.70165939 F F F
 H              9.74985506       3.00571610       0.31490964      -0.09420142      -0.15172959      -0.03536627       1.77126812      -0.04893109      -0.04191056       1.06116093 F F F
 H              2.74088826       4.76833911       4.06198944       0.04563521      -0.00323384       0.01604600      -0.07834908      -0.70466140      -1.87758569      -1.55736193 F F F
 H              5.62295095       4.50705576       4.51739018      -0.07546459       0.11990735       0.07464708       0.12031012       2.39379600      11.68509860      -1.89646419 F F F
 H              5.62783435       4.37459241       3.95918703      -0.00193264      -0.05735911      -0.07486443      -0.37103198      -2.88732121      -9.94920648      -1.35739019 F F F
 H              7.58110531       4.68556340       8.33527639       0.00294770       0.01579916      -0.05902236      -0.16398038      -2.76086288       1.31101472      -2.61872268 F F F
 H              0.93673967       4.95705227       7.12805051      -0.00457891      -0.00283837      -0.03895164      -0.82715365      -2.48558070      -1.29162869      -2.86371082 F F F
 H              0.66771453       4.19892942       6.80049943      -0.10891654       0.00873711      -0.06445098       0.99860300       2.50248364       0.92548434      -2.87256266 F F F
 H              5.72182875       4.76953460       6.65873816      -0.13718095      -0.25472413      -0.06050397      -0.03645640       0.56250630       2.47345207      -2.96356129 F F F
 H              7.78403479       0.25557838       1.09337521      -0.03462557      -0.07127680       0.09461967       0.36504599      -3.72069137       2.37976381      -1.00653287 F F F
 H              1.76795305       1.69001883       2.72805019       0.05772782      -0.03558935       0.02995519       0.72608620      -0.52742200      -0.92092181      -2.98892983 F F F
 H              1.27637273       8.69746744       0.84594393       0.02806978      -0.02233570       0.00514267       0.76610528      -0.44942709      -0.76021414      -2.49926979 F F F
 H              6.42387609       1.31480122       4.37270205      -0.06259541       0.04807467       0.00597540      -0.50787227       0.24104612       0.42564512      -2.98877358 F F F
 H              7.26345940       3.85920988       8.59367721      -0.01614858      -0.06657618       0.02634379       1.65173535       1.72613246       0.04846770      -2.77439195 F F F
 H              5.00267263       4.67053975       1.56924160       0.11308756       0.01141630      -0.00069812      -2.35496600       1.23235301      -0.15726594      -0.95646025 F F F
 H              5.60307613       0.17132286       7.96042453      -0.02921008      -0.00807574      -0.01593618      -1.32779873       0.22920093       0.43850674      -2.78328406 F F F
 H              6.03962675       1.57678058       4.99452671      -0.01490923       0.10435817      -0.01007557       0.05732249       0.13562403      -0.44360008      -2.94660986 F F F
 H              9.29319698       8.90904055       9.13046540      -0.13997508       0.02361193      -0.09182057       0.59262688       0.63562755       0.81034169      -2.87364487 F F F
 H              5.88841976       2.12733767       6.96511389       0.01203572      -0.02597264      -0.09945173      -0.47567192      -0.19625961       0.07221285      -1.35069605 F F F
 H              3.94832449       1.10874975       7.71574167       0.03614459      -0.03465692      -0.05994076       0.20007586      -0.52513793       0.77047317      -2.88044243 F F F
 H              2.09384843       1.07811721       2.34046269       0.01422609       0.06355396       0.01205259      -0.32464043       1.13243473       0.73782625      -2.92198203 F F F
 H              5.84229840       5.05915900       7.57886887      -0.07369417      -0.04609652       0.05957707      -1.51672819      -0.38397414      -3.07292618      -2.70708175 F F F
 C              8.56430802       2.07647248       0.33239753       0.04046874       0.02646640      -0.02736588       1.23486310      -2.13652814      -3.47985110      -7.52660211 F F F
 C              8.54859283       3.46263938       1.11020691       0.01292894       0.00141694       0.00718332      15.24213169      14.38841074      -1.51831038      -7.61935707 F F F
 C              6.10763066       1.28564559       0.73120019       0.00189913       0.01011375       0.00400205      -1.31178895       0.01462612      -0.50790615      -9.33750048 F F F
 C              2.61038940       4.19130334       2.30347560       0.00792474      -0.02259435      -0.00092423      -1.66450361      -0.61487938       0.82918276      -8.53411830 F F F
 C              0.78290770       5.18785186       1.03451170       0.00767444       0.03523541       0.00587968      -0.59841975       0.97408907      -1.10703240      -6.45381701 F F F
 C              5.86187449       4.13337039       1.87692283      -0.01993376       0.01449379       0.01823536       2.25992459       1.45994527       1.66102901      -9.68260302 F F F
 C              4.88460626       9.89116046       0.63090385      -0.00750399       0.01550621      -0.01133243      -0.69346430      -1.41233061      -2.02604524      -7.77126440 F F F
 C              6.02567089       5.25289633       2.95179233      -0.05193562      -0.01034215       0.00057564       0.17778076      -1.96454765      -3.36896988      -6.82543175 F F F
 C              0.13262950       3.99408076       0.64915716      -0.02614131      -0.02912225      -0.01797453       0.83034806       1.05164072       1.97532980      -9.33473871 F F F
 C              8.42263556       0.75508785       0.46658294       0.00272151      -0.01468679      -0.00062017       0.61033150       0.66124001      -1.57226744      -9.65918339 F F F
 C              1.69003053       8.46799464       9.78473369      -0.01370115       0.00365946       0.00132270       0.42964263       1.81068951      -0.95998262      -7.92327771 F F F
 C              3.91555998       9.09028039       9.29731473      -0.00863901       0.01785503       0.00210569       2.03730456       3.50105272      -0.56160057      -7.12058552 F F F
 C              6.40762206       6.41538848       2.84737753      -0.01537019      -0.04812616      -0.01707375       0.22225300       1.10368109      -0.13669571      -6.77849477 F F F
 C              4.48504215       0.26433900       8.22270707       0.03526507      -0.00438996       0.02570392       1.08394408      -0.81472166       0.34672490      -7.68122238 F F F
 C              6.19858057       2.72635254       2.21286730       0.03187957       0.03662163       0.00787051      10.31349291       4.31764669      -3.57489230      -4.52297334 F F F
 C              1.51651841       4.15555206       1.46520631      -0.01146258      -0.00003227      -0.01093386      -0.39254566      -1.31860714       1.60447799      -6.46043315 F F F
 C              2.61820305       9.03195401       8.91678500      -0.01718833       0.02056074      -0.00107196      -1.17260412      -1.39923946       2.51058420      -5.80318819 F F F
 C              5.06810601       2.29215276       2.36300035       0.02612712      -0.00749350      -0.00661348      -8.37017210      -5.34227794       1.57543446      -7.69915255 F F F
 C              5.25462651       0.38546684       1.82604994       0.01932649       0.00638617       0.00863655      -0.26322025       1.75201045       0.23295644      -5.53085550 F F F
 C              7.74315473       2.68674700       1.18479402      -0.00625063      -0.02724147       0.00236182     -18.65342968     -10.44459947       5.40601397      -4.55363350 F F F
      50
 Properties=species:S:1:pos:R:3:velocities:R:3:forces:R:3:local_energy:R:1:fix_atoms:S:3 Lattice="9.9905032156        0.0000000000    0.0000000000    0.0000000000    9.9905032156    0.0000000000    0.0000000000    0.0000000000    9.9905032156" temperature=5705.21305692 pressure=16494.30761358 time_step=0.5000 time=20.000000 energy=-213.964630 energy_soap=-249.20863728  energy_2b=32.66533559 energy_3b=2.57867218 energy_core_pot=0.00000000 energy_vdw=0.00000000 energy_exp=0.00000000 energy_xps=0.00000000 virial="-14.56092294         -5.84031842    -11.77328834     -5.84031842    -16.25029297      8.94357711    -11.77328834      8.94357711    -10.66252788" stress="0.01460249            0.00585699      0.01180689      0.00585699      0.01629668     -0.00896911      0.01180689     -0.00896911      0.01069296" volume=997.153669 step=40
 H              3.65711712       4.19218304       5.06832458       0.03375750       0.04652988      -0.00830332       1.03434428       0.08351696       0.97829445      -2.67554901 F F F
 H              6.92472810       8.63781536       1.00624959       0.04844983       0.03064656       0.10928277       0.67999668       1.36498583       0.61460169      -1.39952110 F F F
 H              3.54736879       0.58187703       6.81557420      -0.01898430       0.02460555       0.05008214      -0.46123596      -1.63114009      -2.52047732      -2.33336422 F F F
 H              9.23783336       8.87580659       9.29679476      -0.06039575      -0.06751625      -0.12022417       1.33613355      -1.02651659      -0.30048850      -2.82185941 F F F
 H              4.49288560       5.40195830       0.03430065       0.07420608      -0.02144525      -0.06131752       0.04750043       0.51257916       0.97470864      -1.93328555 F F F
 H              1.11616468       3.68260842       2.80781335       0.02149656      -0.02848345      -0.06000927      -0.22313072       0.60197084      -0.45880445      -0.77102714 F F F
 H              3.73060611       0.07786662       6.14021899       0.06790137      -0.04322111       0.03171498      -0.50277701       1.03984968       1.26269349      -2.99543718 F F F
 H              5.30135948       4.32832675       0.77345612      -0.00191474      -0.06918658       0.07716542       0.59039116      -0.81156388       2.15003472      -1.50699193 F F F
 H              4.41289890       4.30405124       5.88583573       0.01494274       0.16429228       0.03600611      -0.83477051       1.32978985      -2.54643609      -2.55581323 F F F
 H              0.47990012       1.37551269       9.45258814       0.13865354      -0.15965491      -0.10441700      -1.14562079       0.05403883       0.69631550      -1.20370213 F F F
 H              3.10094613       4.35645238       3.30302302       0.01992578      -0.07576547      -0.17027653      -0.58519343      -0.23210563      -1.15389995      -2.63040932 F F F
 H              5.05690264       5.77640941       5.34553024      -0.04957213       0.10386500       0.04181208      -0.17915986      -0.98041763      -0.33943862      -1.41868850 F F F
 H              5.30793321       4.26559517       3.61750241      -0.11737666      -0.06961908       0.12018678      -1.52815486       1.02440188       1.13604031      -0.44536576 F F F
 H              7.34525177       4.07323100       8.00383325      -0.02578954      -0.06425909      -0.02511815       0.64819099      -1.35768486       3.38315478      -2.65777116 F F F
 H              0.67114413       4.50287790       6.48559536      -0.08140175      -0.03737293      -0.07621985      -2.74309884       0.73591030      -0.42138788      -2.87636433 F F F
 H              9.82649904       4.72100105       6.36176521      -0.02882338       0.04451806      -0.02828463       2.67696606      -0.74588252       0.50818315      -2.88899654 F F F
 H              4.69269252       2.81683472       7.25217183      -0.07224744      -0.13749146       0.13649628       0.05183523       1.17618536       0.30794673      -2.85372553 F F F
 H              8.18641662       9.52810211       1.74005584       0.06661750      -0.02502535      -0.01097449      -0.68507075       0.89613347      -1.97459068      -1.61575238 F F F
 H              2.33337375       1.73486964       3.03105880       0.07396340       0.00798138       0.00248210      -0.52955523       0.55263773       3.10192298      -2.81281950 F F F
 H              1.59432083       8.29428845       0.89136295       0.01885790      -0.05870465      -0.01334872      -0.59520782      -0.25559832      -1.48210926      -2.41794924 F F F
 H              5.77679165       1.82258978       4.52528021      -0.06124895       0.07755793       0.02033441       0.26943051       0.74931591      -0.54786152      -2.50761516 F F F
 H              7.58175365       3.74041578       8.90686748       0.03554479      -0.01636489       0.03353900      -0.92653422       1.41715727      -3.58807344      -2.62052547 F F F
 H              4.84095438       5.47131860       1.23367585      -0.07305184       0.07428471      -0.06128603      -0.65471471      -0.33362384      -1.03917255      -0.45816380 F F F
 H              5.86016969       9.88326925       7.96910444       0.03676635      -0.05077210       0.05269343      -1.53862837      -0.05940973       1.37175064      -2.67130815 F F F
 H              5.80616523       2.56209277       4.89482428      -0.02817043       0.06080112      -0.02271878      -0.21745799      -0.70891920      -0.31299784      -2.27901796 F F F
 H              8.71057631       9.39073750       9.26924142       0.01096755       0.03970065       0.08103631      -0.31019644       0.33509639      -0.15364382      -2.48382097 F F F
 H              5.71974939       1.92293863       6.12782061      -0.03704978      -0.02467450      -0.04943266      -0.01606133      -0.36315362       0.97992551      -2.63301376 F F F
 H              4.53893314       1.13388702       8.04208293       0.07181943       0.10496453       0.11941615       0.00764297       1.72615722       1.31265598      -2.19481705 F F F
 H              2.48261233       1.63005325       2.39816771       0.05070222       0.07496846       0.02914409       1.22375354      -0.61907643      -3.26351871      -2.84303418 F F F
 H              4.80865688       3.82729430       7.16022487      -0.10209388      -0.19952712      -0.06180040       0.39435834      -1.19368048       1.10046813      -2.35006568 F F F
 C              8.82894720       2.23916039       0.10864219       0.01485010       0.00601951      -0.01320134      -1.20610869      -2.45720039       1.86968022      -7.67965422 F F F
 C              8.87228228       3.60172798       1.12293030       0.02807231       0.00688426      -0.00136492      -8.59395182      -3.95260291       2.63340794      -6.16744982 F F F
 C              6.09437633       1.34125325       0.74750990      -0.00231243      -0.00211785      -0.00001831       0.40036334      -1.87796887      -0.26501181      -8.05777282 F F F
 C              2.59825757       3.96678496       2.29185044      -0.00853481      -0.02063821      -0.00272519      -0.97276307       0.47860523      -1.00000342      -8.08191355 F F F
 C              0.85189726       5.48016581       1.07292984       0.00824844       0.01768867       0.00407253       0.48403867      -3.68539482       0.36365567      -6.54977800 F F F
 C              5.74499117       4.25830248       2.07436706      -0.00953333       0.00602999       0.00880058       0.97061789      -4.34953380      -7.18447427      -7.59905202 F F F
 C              4.78866625       0.01948037       0.50119556      -0.01030394       0.00934823      -0.01149957       0.21137857      -0.31385660       1.03836779      -9.06080630 F F F
 C              5.47217015       5.03138683       2.95759803      -0.05536531      -0.01132816       0.00170350      -1.02474249       3.83372326       4.78448251      -5.95770738 F F F
 C              9.93570085       3.80192871       0.55466628      -0.00358970      -0.00760048      -0.00546636       9.72196809       3.14076974      -2.28722100      -7.04639310 F F F
 C              8.39879196       0.63541244       0.47306975      -0.00843243      -0.00702273       0.00424936      -0.13388523       1.64605978       1.10123781      -7.26420474 F F F
 C              1.58306640       8.55789332       9.73574037      -0.00966271       0.01156512      -0.00682993      -0.81836552      -0.24284129       1.66094772      -7.65238515 F F F
 C              3.89613489       9.38645190       9.28900640       0.00197393       0.03740034      -0.00318588       0.00988988       0.83405874      -0.35000566      -6.64099735 F F F
 C              6.29707869       6.07920009       2.68612875      -0.00904261      -0.02275243      -0.01278453      -0.18150164       1.35234520       1.13843738      -9.20671111 F F F
 C              4.79785178       0.19612572       8.50086956       0.03369785      -0.01141128       0.02869945       2.37239127      -1.12725046      -0.70440858      -8.56536203 F F F
 C              6.64757390       3.14026262       2.22445168       0.04921125       0.04040458      -0.00341079       1.12212834      -0.59225969      -1.13261900      -8.17780538 F F F
 C              1.40824999       4.15013623       1.43317026      -0.00994568       0.00335283       0.00327835       0.07700532       1.69120999       1.15595084      -6.73527184 F F F
 C              2.42866463       9.18067298       8.99782683      -0.01635959       0.01163498       0.01405867       1.94605796       0.48949565       0.35462775      -6.42918156 F F F