      50
 Properties=species:S:1:pos:R:3:velocities:R:3:forces:R:3:local_energy:R:1:fix_atoms:S:3 Lattice="9.9905032156        0.0000000000    0.0000000000    0.0000000000    9.9905032156    0.0000000000    0.0000000000    0.0000000000    9.9905032156" temperature=5958.83616985 pressure=-3502.24064854 time_step=1.0000 time=1000.000000 energy=-273.394586 energy_soap=-377.84468791  energy_2b=110.45195745 energy_3b=-6.00185569 energy_core_pot=0.00000000 energy_vdw=0.00000000 energy_exp=0.00000000 energy_xps=0.00000000 virial="-25.01110247          5.85136638     -7.51094006      5.85136638    -10.55544934     16.82685248     -7.51094006     16.82685248    -46.45597411" stress="0.02508250           -0.00586807      0.00753238     -0.00586807      0.01058558     -0.01687488      0.00753238     -0.01687488      0.04658858" volume=997.153669 step=1000
 H              0.76958095       3.33406086       6.21401382      -0.01092134      -0.06600282       0.07172040       0.40535860       1.37503296       0.32319061      -3.20481523 F F F
 H              6.65194132       2.93927964       8.36247939      -0.05245898       0.02766564      -0.05452038       0.35044362       0.42115492      -1.80796471      -3.37434745 F F F
 H              8.78239562       0.41084747       1.79312149      -0.00801834       0.03206469       0.02470420       0.50936511       1.47798531      -0.20162826      -3.32713239 F F F
 H              0.44800048       8.29854385       2.61592551      -0.17862018       0.28355610      -0.36969209      -0.49447664       1.51706002       0.27194264      -2.70377388 F F F
 H              5.72303969       3.70487088       5.76794891       0.03028166      -0.02436083      -0.00224610       0.30301329      -0.62259745       1.59684126      -2.35518752 F F F
 H              9.00742247       5.37683886       4.76773293       0.07403718      -0.04669998       0.02838932       1.04985538       0.63853406       1.03104812      -3.44011428 F F F
 H              3.60365421       0.49695706       0.95163413      -0.01973390      -0.02998652       0.00238752      -1.81966844       5.80951113       0.71962483      -3.23961339 F F F
 H              0.82801319       2.66740235       6.25661304       0.03890062      -0.08231333      -0.00459158       0.49716692      -0.84825172       0.33216391      -3.07876223 F F F
 H              3.15690219       6.24711692       2.59105174      -0.03910828       0.03544181       0.05532607      -0.96521132      -0.42671322       0.71519758      -3.01172453 F F F
 H              6.51936315       3.02649477       3.49321441       0.01365821       0.02429060       0.12415555       0.57938097       0.23261835       0.75790598      -1.88087831 F F F
 H              9.41199337       1.33145106       8.77757340       0.09577089       0.07301465       0.03540317       0.17087643       2.43952200       1.49037922      -2.98631894 F F F
 H              1.55293854       6.49059823       7.87961449       0.06881965       0.00337475       0.05018822       2.94223899       1.96370518      -2.74478798      -2.25412424 F F F
 H              1.98724523       1.13538851       3.03472864      -0.01522147       0.00128316       0.01995339       0.72228147       0.69453413      -0.27085881      -1.67482386 F F F
 H              8.98844592       8.60057843       4.08657659      -0.00075447       0.10501845       0.05311146       0.35885038       0.97160826      -2.43716783      -3.50019080 F F F
 H              1.35822795       9.72209376       5.77070116       0.07479216      -0.06134589      -0.05625163       0.56448916       0.04098255      -0.50597332      -3.98113742 F F F
 H              1.35312115       0.15209831       3.67130886      -0.04535001      -0.00037688      -0.01127403      -0.53136328      -0.02154770       0.39542299      -2.59972099 F F F
 H              2.72176118       5.82567709       3.11817293       0.06393425       0.02039787      -0.06968882       0.61482860       0.91989850      -0.95433552      -2.89984490 F F F
 H              0.88974684       0.48351919       7.50338849       0.08749793      -0.01385211      -0.03415295      -0.68512616       0.23250070      -2.98808188      -2.70780247 F F F
 H              2.31458822       6.89338942       7.05414229       0.08189300      -0.03704576       0.00970173      -2.86832931      -1.58750184       2.82425927      -2.21119890 F F F
 H              2.29476724       1.96301666       3.19370698      -0.01733352      -0.05736902      -0.01995878      -0.15080144      -0.97388061      -0.40893465      -3.28490804 F F F
 H              1.78456906       7.76574419       9.17958527      -0.07234832       0.03018436       0.13301491       0.36561451      -0.25516379       0.06143443      -2.11950091 F F F
 H              9.38337863       2.09361789       9.13629897      -0.00413313       0.02775973      -0.01049119       0.02300920      -2.02666160      -1.14390557      -3.04419719 F F F
 H              2.29278485       7.75178870       0.65118721      -0.03549138       0.03449579       0.02741927      -2.27781438      -0.81769203       0.10281105      -3.36947793 F F F
 H              5.27929458       2.28052086       5.27896252       0.04655265      -0.15030269       0.31386717       1.56839493      -0.69007810       2.00174791      -3.01852572 F F F
 H              0.00048460       1.42610087       4.52459459      -0.05133083      -0.09253082      -0.04333210      -1.57847633       0.60317563       1.56153519      -2.55568168 F F F
 C              9.42231315       1.56125302       5.78613581      -0.00245639       0.01927150      -0.02474902       0.78959248      -3.27087919       0.36813073      -7.33358253 F F F
 C              8.85086441       7.58035431       2.04946162      -0.02263914      -0.00730132      -0.00546064      -3.82442277      -4.89131100      -0.74124093      -7.65020204 F F F
 C              7.17471405       0.30422933       8.71570131       0.01064974       0.01172315      -0.00088303      -0.08433182      -3.91303055       1.74216292      -8.96511220 F F F
 C              7.46905600       1.10818319       7.74004851       0.00271147       0.00067802      -0.00410932       0.23498907       1.02430985      -0.66236090      -7.59642879 F F F
 C              4.46340244       8.44144107       0.85816806      -0.00047883      -0.00153745      -0.01346232       2.86091845      -1.88215224      -1.66737540      -6.77773958 F F F
 C              9.13432934       8.61497394       2.80999651       0.02788044      -0.00423703       0.00476629       2.23170014       1.63320628       1.96201246      -6.86290846 F F F
 C              6.40915516       6.90056340       0.62820640      -0.01034016       0.01108984      -0.01649270      -0.82769496       3.19976276      -0.20059019      -7.92567314 F F F
 C              6.38403774       2.66408871       5.97204634      -0.02428829       0.00939573       0.00624286      -1.93219363       3.86218465      -2.15835346      -8.11148834 F F F
 C              7.68045241       6.86769941       1.48737376      -0.00336145      -0.00319549       0.01829863       1.98872721      -0.50241298       0.96581517      -8.58680627 F F F
 C              6.13789130       4.89639129       2.30931405       0.03151350       0.00153107       0.02169547       0.96133892       0.83850627       2.74570029      -8.51785075 F F F
 C              6.58895901       4.54246642       3.65676208      -0.00729377      -0.00670462       0.01005748       3.33495193      -1.54638649       0.42733922      -8.47325236 F F F
 C              6.08891724       5.78108780       1.31092503      -0.00296564      -0.03174573       0.01518625       0.00193200      -2.16623297       1.62259933      -7.81316787 F F F
 C              3.77281720       9.51792615       0.83208522       0.00372750      -0.00384603      -0.00180832      -0.89030820      -5.11235274      -0.33996514      -7.83877917 F F F
 C              3.13221089       8.36287623       0.76979331      -0.02065638      -0.01556871      -0.00389545       4.41199722       1.84532293       0.09174229      -7.89614908 F F F
 C              8.26084719       9.49016684       1.67895347      -0.00609961       0.02251010      -0.00560130      -1.48434641      -3.69874285       0.76880898      -8.12270265 F F F
 C              5.86565676       8.49597444       0.39096951      -0.00030165      -0.01256742      -0.01000690       0.79171787      -3.31728359       1.47844022      -8.24712974 F F F
 C              8.29542452       5.39250913       3.98106257      -0.00328588      -0.02272054      -0.00296429      -3.46767480       0.86643488      -6.06512813      -7.05001582 F F F
 C              7.09488278       3.55796036       4.73504860      -0.00092077      -0.00895655      -0.02705733      -0.07284332      -0.01650597      -0.62330780      -7.33507352 F F F
 C              7.03518240       2.55029017       7.36745647      -0.01829835       0.02536448      -0.00957492      -0.38588988      -2.81232551      -1.72702606      -7.75993081 F F F
 C              6.89371994       9.06953765       9.48152226       0.01033733       0.00484535      -0.02164633      -0.25745553       3.40009973       1.10769904      -8.89486881 F F F
 C              8.36054599       1.71839115       6.63917640       0.00497887      -0.01493697      -0.00470942       0.78751661      -0.25655374      -0.10335336      -9.33052611 F F F
 C              0.55561783       0.38729294       5.94686607       0.00568164      -0.00023741       0.02704363      -2.29250471       2.82966252       3.42336244      -5.94972665 F F F
 C              7.25149081       8.69580970       1.09701795       0.00154154       0.00544620       0.01544994      -0.11940254       3.10105654      -2.89278818      -9.56699982 F F F
 C              8.32646418       3.36802760       5.41614818      -0.00631828       0.01185143       0.00824774      -2.01999833      -0.45580857      -2.07938897      -9.03537869 F F F
 C              8.16493686       6.05512134       2.69414237       0.02014411       0.00679056       0.00246261      -0.39021525       0.17369633       1.83519896      -9.92928975 F F F
