      50
 Properties=species:S:1:pos:R:3:velocities:R:3:forces:R:3:local_energy:R:1:fix_atoms:S:3 Lattice="9.9905032156        0.0000000000    0.0000000000    0.0000000000    9.9905032156    0.0000000000    0.0000000000    0.0000000000    9.9905032156" temperature=1460803.74078476 pressure=9867486.70129099 time_step=0.5000 time=0.000000 energy=-156.312120 energy_soap=-156.81653790  energy_2b=-2.89079164 energy_3b=3.39520919 energy_core_pot=0.00000000 energy_vdw=0.00000000 energy_exp=0.00000000 energy_xps=0.00000000 virial="-17.71063057         24.66852087     -5.56483759     24.66852087    -41.25036302      1.01959684     -5.56483759      1.01959684    -21.92212242" stress="0.01776118           -0.02473894      0.00558072     -0.02473894      0.04136811     -0.00102251      0.00558072     -0.00102251      0.02198470" volume=997.153669 step=0
 H              3.97467849       8.41225798       1.95172063      -0.10679040      -0.24743760      -0.10537838      -0.92237612      -0.18356450       0.47721748      -0.76486340 F F F
 H              4.07019114       3.49149061       9.29030206      -0.14550749       0.21096156      -0.19955321      -4.65764052       5.14995511       4.96760838      -1.12251358 F F F
 H              6.40096588       6.67384702       0.44025000       0.06624341       0.17545912      -0.11430107      -0.28028996      -1.03766696      -0.43397095      -0.87538725 F F F
 H              3.53280968       4.94809946       7.93075347      -3.79390471      -3.41523240       0.64468466       0.56688127      -0.67546053      -0.61905105      -1.99592255 F F F
 H              2.20121262       0.79422339       1.71402559       0.14006523       0.13759211      -0.04912332       0.18058968      -0.40311861       0.55056131      -0.39471665 F F F
 H              1.10595925       8.42118966       7.07562715       0.09700552      -0.01580319       0.19001002       1.17468294       0.11854743       1.01411776      -2.97027620 F F F
 H              9.57769588       9.58832874       4.08086206      -0.18031724       0.22507666       0.13538317       2.75965481      -2.11284027      -1.48945556      -2.24629221 F F F
 H              0.39822212       3.97962087       9.60939406       0.09003606       0.01927307      -0.19104061       2.64603203      -0.96355357      -0.77072080      -1.99622001 F F F
 H              6.25934716       1.23964620       5.22317395      -0.14371644      -0.17811037       0.15909285       0.41362207      -0.27970869       1.74648531      -0.87223330 F F F
 H              9.96702431       4.34630732       4.72411677       4.79317517       6.69692946       0.14822600      -1.18695469       0.41445558      -0.00850473      -1.45776872 F F F
 H              4.39309133       7.80130609       4.78971644      -0.03871629      -0.03073514      -0.26270508       0.41032718      -0.76860790      -0.17341932      -0.58863242 F F F
 H              4.71256749       4.55041561       8.43692895      -2.73506765      -2.64980360      -6.09149761      -0.12706736       1.42462295      -0.09173965      -1.67130237 F F F
 H              3.56894871       3.59341444       6.92643068       0.07288254       0.06354259      -0.09498475      -0.22726958       0.90373118       0.33497052      -1.28499780 F F F
 H              5.71894095       9.70849843       6.67183084      -1.81145941      -2.04658016       0.66412158       0.56008251       0.21325795      -0.38856795      -0.85424030 F F F
 H              7.35122721       0.03073757       5.41576063       0.19981550      -0.00099090      -0.10647152      -0.20998675       1.71798025      -0.59072040      -1.67258131 F F F
 H              4.63842469       2.15760737       1.05620770       0.18095305       0.14140672       0.14579590      -0.15689364       2.16427816      -2.25626840      -1.48843690 F F F
 H              5.39667445       5.77027159       4.60067521       0.09876048      -0.08844300       0.07805815       1.39712524       1.58906667       1.28542866      -1.74256868 F F F
 H              9.01067794       2.71482601       7.08110461      -0.24447445       0.09921333       0.58630448     -64.10991199     -26.11956126      21.87491931       3.67672552 F F F
 H              9.05197321       5.58810454       4.15867659       0.00774770      -0.04689203      -0.16412408       0.98621547       0.61547124      -1.03178117      -1.84856795 F F F
 H              4.21341285       3.03914139       8.78692077      -0.10885266       0.10552243      -0.08864304       2.02513927      -6.09696866      -4.49166734      -0.78305872 F F F
 H              7.69416379       8.66190510       0.71353976      -0.14479967      -0.21520050      -0.06814691       0.45555622       0.47442634      -0.67230230      -0.27225153 F F F
 H              0.22312343       8.56049197       7.22173655      -0.17536144       0.01798523      -0.13417479       0.30701302      -0.09774247      -0.48215469      -1.06286663 F F F
 H              7.35177525       0.85122412       0.71541230      -0.00640741       0.08272695       1.27481541       0.06648220       0.24247851      -0.85810978      -1.37725801 F F F
 H              7.76487010       6.44073933       4.92627605      -0.08139215       0.16710101       0.13302520      -2.19941411      -0.31684679       0.49272923      -2.25358896 F F F
 H              6.55574372       6.27853086       5.32029896       0.07925081       0.03358108      -0.09876469      -0.08886809      -0.43028722      -1.74518152      -2.20670745 F F F
 H              1.64253675       3.91781922       9.34136487       0.46613881      -0.04854647      -0.16109730      -2.12080069       0.34116641       1.53887751      -2.08493488 F F F
 H              9.72868797       8.43470951       6.36257749      -1.50117679      -0.66174861      -2.74090203      -1.55025564       0.17319768      -0.84853769      -2.88339346 F F F
 H              7.46814311       1.18832822       3.08301581       0.30734276      -0.00362719      -0.26368272       0.65749623      -1.54655147      -3.47143216      -1.81462419 F F F
 H              1.99375917       7.83335822       2.25438975       0.12441544       0.17518654      -0.08277631       4.82887351      -1.10873778      -6.23462724      -1.98933603 F F F
 H              1.08248123       1.35357982       8.25879596       0.08738408       0.30959605      -0.34541168      -1.63473925       1.37888555      -0.42701238      -0.67152634 F F F
 C              8.41559805       3.41154998       2.36373189       0.04245731       0.04000599      -0.05383051      -1.01198901       1.18632791      -2.35479264      -6.37310548 F F F
 C              7.66574209       7.64774255       8.83431782       0.00952810      -0.00044007      -0.05545176       0.75762977       2.63040298       4.07515000      -5.75538402 F F F
 C              6.84774316       1.83512366       3.63674281       0.25112797       0.04289315       0.14282626      -3.58201285       3.11260362      -8.25934811      -6.99230814 F F F
 C              5.19539322       1.62708254       9.27048699       0.09513161       0.03876844       0.02167594      -0.12526420       3.07619400       2.21240619      -5.86354811 F F F
 C              8.66751356       4.84789015       2.26589126       0.07547021       0.00105253      -0.06382028      -0.67265112      -3.40880664      -1.68596783      -8.00285759 F F F
 C              7.14982875       4.98439207       0.25161773       0.04871567       0.02383255      -0.03592185       1.74254362      -0.81227700       2.27255926      -4.87280874 F F F
 C              4.84089323       3.26583862       9.98797962       0.09459013       0.07748078      -0.07038701       0.94292955      -4.42972579       1.59756747      -5.71871287 F F F
 C              7.40086933       9.11577176       9.18946342      -0.03197165      -0.01408014       0.01765190       0.30935905      -3.18849602       0.18420338      -6.49489183 F F F
 C              9.14882741       2.32333034       0.09401341      -0.02410386       0.02221837      -0.07863504      -2.75691326       3.05451827       1.80176002      -4.89816763 F F F
 C              0.58492803       8.66413964       3.72254837       0.03999627      -0.05050210       0.02849220       1.23550366      -1.51844085      -0.26294120      -6.56855281 F F F
 C              2.65973438       1.03553663       4.73674041      -0.04842155      -0.57562960       0.11860086       5.24421747       1.63516472      -1.65272615      -2.12540411 F F F
 C              7.98510976       3.27594126       0.91826052      -0.11662076       0.11589600       0.07451872       2.20239362      -0.80018418      -1.53761817      -7.26224369 F F F
 C              4.62660928       1.57796945       4.27498625      -0.00480460       0.13380053       0.01180644      -2.78040122      -1.06142492       0.48303615      -4.49259747 F F F
 C              8.36145641       7.29812054       0.35648044       0.01406519      -0.04947135      -0.00920467      -2.52654204      -0.66290666       0.24554500      -8.04681171 F F F
 C              8.05157937       6.74681659       1.90122928       0.03562647      -0.02047351      -0.00534251       1.73430134      -1.32583058      -0.88704047      -8.39587694 F F F
 C              8.88698528       5.91431519       2.95435849       0.01686475       0.10472944       0.05162987      -1.21194002       1.59451875       0.82375799      -5.89856066 F F F
 C              9.57439035       2.94478342       6.88722063      -0.14173278       0.12752119       0.34988148      65.59030613      25.66878456     -21.06532617       0.68568584 F F F
 C              7.28784646       1.62606560       4.72728556       0.00425853      -0.05364116       0.05595306       0.77142412      -3.02993935      10.80532309      -7.53736253 F F F
 C              1.43236976       7.91982106       3.00092679       0.00546354       0.11154467       0.03239752      -7.72465733       5.33401072       8.20544257      -6.75597147 F F F
 C              3.10537112       4.20224923       0.66450972       0.00495020       0.00758149       0.07292910       1.89845745      -1.83479784      -2.19868078      -5.37229809 F F F
      50
 Properties=species:S:1:pos:R:3:velocities:R:3:forces:R:3:local_energy:R:1:fix_atoms:S:3 Lattice="9.9905032156        0.0000000000    0.0000000000    0.0000000000    9.9905032156    0.0000000000    0.0000000000    0.0000000000    9.9905032156" temperature=1314659.37047235 pressure=8896886.00743662 time_step=0.5000 time=10.000000 energy=-143.445425 energy_soap=-128.66573201  energy_2b=-16.17873015 energy_3b=1.39903679 energy_core_pot=0.00000000 energy_vdw=0.00000000 energy_exp=0.00000000 energy_xps=0.00000000 virial="-15.85572551          7.27087606     31.05084098      7.27087606    -33.32061600      0.55743790     31.05084098      0.55743790      7.34246765" stress="0.01590098           -0.00729163     -0.03113947     -0.00729163      0.03341573     -0.00055903     -0.03113947     -0.00055903     -0.00736343" volume=997.153669 step=20
 H              2.54328842       6.37512388       1.24856914      -0.11948415      -0.17117562      -0.03590971       1.07223691       0.33604432       0.96168849      -1.14913361 F F F
 H              2.28903773       6.20816834       7.68044162      -0.19915305       0.26038260      -0.19224881      -0.95262903      -1.19749318      -2.15641687      -1.06419402 F F F
 H              6.08913244       8.44799428       8.84603971      -0.15986557       0.21127611      -0.18845590       0.04586689       1.27975198       0.55498939      -2.13800893 F F F
 H              6.85399914       1.57980614       4.32078122      -3.53907608      -3.27866503       0.65237272       0.23390476       0.48000598       2.61522570      -1.62638281 F F F
 H              3.56072073       2.56936468       1.37651926       0.13361052       0.25533565      -0.03618536      -0.75661825       2.94012945      -0.55189054      -1.54720719 F F F
 H              1.04414709       8.43092953       8.40611129      -0.04633840       0.00378118       0.08361060      -0.20127547      -0.33215360      -0.40264439      -0.45906363 F F F
 H              8.72909211       1.64059136       5.15040179      -0.00795974       0.17054958       0.09473854      -0.36693457      -3.26624772       1.23192874      -1.32889855 F F F
 H              1.25462811       3.95805684       7.60333122       0.08200546       0.00174488      -0.21547969       1.26546161       1.17382744      -1.30760698      -0.82038243 F F F
 H              5.11635632       9.84934928       6.66533283      -0.09770409      -0.11660642       0.13344330       1.44689476      -0.30724418      -0.28803249      -0.78039797 F F F
 H              7.04831790       9.44263700       6.20986141       4.59504573       6.33163708       0.11442137      -0.91193343      -0.43245310       0.19708354      -1.60107270 F F F
 H              3.64661966       7.48112968       2.20031432      -0.13713755      -0.01915749      -0.27408166      -1.79507793       0.84022385      -0.89800821      -1.61863712 F F F
 H              8.14327420       7.89927875       8.96592605      -2.49977062      -2.61437354      -5.68661600      29.96091068      10.89859211      37.99320031       3.81480028 F F F
 H              4.29723342       4.06850392       5.89992577       0.06313681       0.01182723      -0.11184034      -1.92135578      -1.45693079      -0.56768121      -1.60234698 F F F
 H              7.79278400       9.58683365       2.93137426      -1.78020314      -1.94570416       0.60913625       0.64118612       0.01828223       0.90080634      -0.66784287 F F F
 H              9.28816267       9.69614975       4.49413547       0.18356424      -0.11354523      -0.06566784       0.11573158      -0.66724842       0.02542231      -1.60340816 F F F
 H              5.96028749       3.93115729       1.65244583       0.08660697       0.16637559       0.04849228      -3.02891438      -1.40502002       0.70892184      -2.55152940 F F F
 H              6.63821213       5.33052988       5.45454391       0.14422783       0.00728168       0.06008726       0.43467261       1.63220452      -1.11790487      -1.04315808 F F F
 H              4.45269322       2.71421013       3.72507976      -0.48886957      -0.02219629       0.53201541     -10.43635979     -11.35814734     -44.57949277       1.32269966 F F F
 H              9.43196263       5.28550769       3.62800492       0.06046980       0.01731398       0.03055756      -0.13643631       1.37154752       0.97047733      -1.09499779 F F F
 H              3.60332352       3.22163087       7.10503372      -0.02906010       0.02093058      -0.22364381       0.69984744       1.79478587      -1.69880604      -1.52979488 F F F
 H              6.76924698       6.99249103       0.33923072      -0.05827664      -0.14647127       0.02594138       0.20211039       0.53159950      -0.37140176      -0.62420370 F F F
 H              9.59990336       8.65487759       6.08502329      -0.00288018       0.01618282      -0.12523741       0.30177492       0.07770726      -1.39331754      -1.14827998 F F F
 H              5.25052129       2.82100538       9.16471489      -0.43983944      -1.32432246       0.46374558      -5.88017116       0.46310637       0.28216160      -1.24967362 F F F
 H              6.54859225       7.77975798       6.09523908      -0.11407012       0.10273652       0.10404988       0.95803842       1.45215285       0.03183482      -1.42352959 F F F
 H              7.38721620       6.55508938       4.41869803       0.07390187       0.00875441      -0.04000907       0.39719917      -0.68422619       0.60626312      -1.52051108 F F F
 H              5.54451700       3.41602054       8.27240953       0.32179488      -0.05923963      -0.13888262       1.35081348       3.45888541      -2.25213756      -1.80504968 F F F
 H              5.21676567       1.76501695       9.67688341      -1.39185621      -0.68203873      -2.60660056      -3.51303877      -5.52918055       2.15367145      -2.37884932 F F F
 H              0.48977582       1.72519947       0.21333380       0.24895444       0.12910412      -0.30666232      -1.95925317       1.17282572      -0.88115319      -0.91406418 F F F
 H              3.15032019       9.06298342       1.98775327       0.05322554       0.06779284       0.06166059      -1.44710283      -1.72927020       1.73701876      -1.49938930 F F F
 H              1.49438702       4.88301646       5.11429705       0.05203930       0.39274451      -0.26663787      -1.13298478      -0.44007455       0.27636399      -3.02778098 F F F
 C              8.74876308       3.78505900       1.78454411       0.02009840       0.02782211      -0.05993352      -1.93565420      -3.21057686      -0.15646604      -5.45531954 F F F
 C              7.77868221       7.74443307       8.40398135       0.00721818       0.01598713      -0.04086694     -27.73677371      -9.17271326     -35.59844773      -3.90298931 F F F
 C              9.25394248       2.45209847       4.63021467       0.22675459       0.06626446       0.09197877      -0.53223691       1.46287330      -0.87476279      -3.32622131 F F F
 C              6.08567906       2.19328102       9.54267818       0.08674806       0.07428205       0.03190431       6.76610656       3.51158666       1.26217520      -5.45190117 F F F
 C              9.42606316       4.90797170       1.63680358       0.08036388       0.01784977      -0.06096513       2.72165519       2.92135016       0.53276407      -7.70494674 F F F
 C              7.67722673       5.14589302       9.96269466       0.05263235       0.00873349      -0.02797053      -2.34464592       1.58544014      -3.70528163      -7.53211583 F F F
 C              5.83736251       3.87721527       9.37367900       0.11739995       0.05615955      -0.03720380       3.09794923      -0.63890752      -0.56509077      -6.08410573 F F F
 C              7.10604432       8.82650928       9.30037567      -0.02372793      -0.04019060       0.00108759      -1.87117989      -2.11790335      -3.65072177      -6.88897617 F F F
 C              8.85721724       2.67389005       9.34667275      -0.03061218       0.04745041      -0.06475567      -0.37831112       3.53487535       4.28414874      -4.47443511 F F F
 C              0.75623882       8.24230698       4.28928485       0.00949088      -0.03775998       0.06534958       0.51359434       2.62367034      -3.92149270      -5.18308093 F F F
 C              2.16306312       5.40703878       5.81708881      -0.05426186      -0.54916583       0.10213991       2.01547335      -0.24492915       3.64357836      -4.04699796 F F F
 C              6.88941930       4.40886375       1.54480531      -0.10298840       0.11024434       0.05343664       3.12994947       0.41935565      -1.34373084      -7.31321807 F F F
 C              4.59469452       2.90164604       4.39621488       0.00216949       0.13207118       0.02564858      11.81413592      11.50866950      47.08656992      -1.43569153 F F F
 C              8.41923877       6.77818729       0.32249504      -0.00228267      -0.05551402       0.00371733      -2.68837049      -1.01441871       1.74547608      -8.03881909 F F F
 C              8.48944648       6.50723916       1.83791434       0.05226130      -0.02426510      -0.00437093       2.22462683       1.68828773       2.04089903      -7.41181045 F F F
 C              8.98346024       6.95509921       3.30088077       0.00505720       0.10034631       0.02154611      -0.73999979      -1.32069150      -1.94580145      -6.53938008 F F F
 C              8.42773060       4.20775839       0.33227060      -0.10903597       0.11313741       0.33799267       2.22886685      -6.49897964      -0.84970161      -5.17708618 F F F
 C              7.41086038       1.63452997       5.96990728       0.01812392       0.03869385       0.13481896      -0.56886870      -1.27641091      -3.48469542      -5.39337733 F F F
 C              1.78525405       8.97560023       3.07832494       0.04992242       0.09582919      -0.00251804      -1.40756324      -2.77920459       2.66433927      -4.85222575 F F F
 C              3.21547107       4.22480233       1.31127716       0.01624132      -0.00306134       0.05967895       1.00468215      -2.09735589       0.05567878      -2.55243851 F F F
      50
 Properties=species:S:1:pos:R:3:velocities:R:3:forces:R:3:local_energy:R:1:fix_atoms:S:3 Lattice="9.9905032156        0.0000000000    0.0000000000    0.0000000000    9.9905032156    0.0000000000    0.0000000000    0.0000000000    9.9905032156" temperature=1201567.23593089 pressure=8067861.62111010 time_step=0.5000 time=20.000000 energy=-170.629162 energy_soap=-147.23621425  energy_2b=-25.52162293 energy_3b=2.12867547 energy_core_pot=0.00000000 energy_vdw=0.00000000 energy_exp=0.00000000 energy_xps=0.00000000 virial="-51.41691220         -1.72007106     -1.75994872     -1.72007106    -43.05804135     -0.47419403     -1.75994872     -0.47419403    -62.65766956" stress="0.05156368            0.00172498      0.00176497      0.00172498      0.04318095      0.00047555      0.00176497      0.00047555      0.06283652" volume=997.153669 step=40
 H              2.07612141       4.49371368       1.08526069       0.03179716      -0.19686339       0.01755162       1.42441538       0.27778298       1.79627471      -1.67509043 F F F
 H              0.24898594       8.85481662       5.31677760      -0.16300955       0.29153834      -0.22234828       1.91111974       0.22393306       2.79849240      -2.30274431 F F F
 H              4.63563554       0.43337891       7.11658062      -0.17954771       0.14375213      -0.15717052      -0.52319159      -0.53680165       0.29587016      -1.01546494 F F F
 H              2.34242524       9.54379542       0.85876599      -3.31935778      -3.09584714       0.67181031      -0.49761703      -0.07221063       1.72636512      -1.17517975 F F F
 H              4.89683756       5.18216374       0.58044943       0.10448808       0.22347296      -0.07708310       0.39095708       0.11954005       0.67947861      -1.79568235 F F F
 H              0.50934129       8.28247673       9.09318891      -0.02476493      -0.06064819       0.07890807       2.67896440      -2.16061062       1.07420299      -2.06498133 F F F
 H              8.42246855       2.95357796       6.29883501      -0.05536191       0.09862701       0.10857441      -0.55361129       0.45489205      -1.70618883      -2.08228622 F F F
 H              1.67628360       4.34055990       5.46530153      -0.02030003       0.00099525      -0.21042845      -0.98248566      -1.09052246      -0.10269428      -2.45864541 F F F
 H              4.60631588       8.74753693       8.13983229       0.04493777      -0.06096372       0.12358327       3.07721559       0.27698269      -2.09458532      -2.04653233 F F F
 H              2.15484118       1.47736081       7.37778262       4.40787870       6.03839346       0.11663212      -0.99819348      -1.81290965      -1.58819573      -1.82350251 F F F
 H              1.30082335       7.28820800       9.46075648      -0.32014351       0.00253451      -0.28684642      -2.81488605       3.06216207      -0.86018275      -1.87139096 F F F
 H              3.44946416       3.08706851       3.47573869      -2.48756921      -2.40455097      -5.47910528      -1.23037851       0.75636385      -0.17066984      -1.62235825 F F F
 H              4.71290769       5.37585734       6.18537600       0.03470242       0.26478931       0.16365866      -0.44560999      -1.77807270      -2.75461048      -1.22524077 F F F
 H              0.40172117       0.38481547       9.02094735      -1.69976682      -1.87908269       0.55973291       0.98579383      -1.03685789      -1.03732171      -0.85648321 F F F
 H              1.42475712       8.55610376       3.56541356       0.21362299      -0.04441395      -0.12116222      -0.82782649      -2.10840741       2.71484077      -0.99920250 F F F
 H              4.48355424       4.42948083       2.86360027      -0.20584096       0.07602988       0.13168637      -0.87201046       1.73902379      -1.10651751      -1.34895413 F F F
 H              8.20941507       5.92683777       5.67013434       0.16285890       0.09091752      -0.01923937       0.01275606       0.49492709      -1.53500810      -1.13213909 F F F
 H              7.79409373       1.06641142       6.24779713      -0.66331055      -0.16572457       0.27873014      -0.78811332       1.72574924       2.64800124      -2.30557207 F F F
 H              9.97363805       5.98829854       4.00385663       0.04555117       0.11776754       0.02341097       1.02310627      -0.17888562       0.13316752      -1.74739032 F F F
 H              2.93142693       3.49009759       4.64348558      -0.07398380       0.02022169      -0.26054284       0.47808958      -0.75555160      -0.27926210      -1.53477044 F F F
 H              5.89679778       6.02834824       0.44493512      -0.13338906      -0.06826812       0.03836218      -0.82023124      -0.76752530       1.12154096      -1.58883005 F F F
 H              9.92425354       8.41751038       4.44611836      -0.00862733      -0.03760959      -0.19142624      -2.76981632       0.45895523      -2.36715711      -1.00527641 F F F
 H              1.30310880       0.11905821       3.93507617      -0.34757768      -1.22172907       0.49222236       3.19115070       0.93225608      -0.96617664      -2.40209745 F F F
 H              5.65766542       8.63353376       7.46553788      -0.09417419       0.06422808       0.18664538      -2.29019687       0.17254541       2.18993036      -1.78630991 F F F
 H              8.76649514       6.79594816       4.20594596       0.18801150       0.06362154       0.00409757      -0.54365271       1.16461824       0.18893846      -1.81180793 F F F
 H              8.74820196       2.89253235       7.05921711       0.29972657      -0.07339611      -0.10713263       1.05240402       0.11767271       0.53545528      -1.64528520 F F F
 H              1.56003641       5.10622507       4.08468846      -1.31853087      -0.67053784      -2.49258258      -0.58064040      -0.24875204       0.48758989      -1.87994935 F F F
 H              2.34554938       3.11360043       6.75362293       0.15144266       0.10111580      -0.39974989      -1.75579660      -0.60789592      -1.93853960      -2.20712756 F F F
 H              3.18160455       9.27026171       3.03759661       0.13243863      -0.03700270       0.09295491       2.07652523       0.01542977       0.49606826      -3.19924525 F F F
 H              1.64690811       8.94868106       2.82420544      -0.01334357       0.42789906      -0.24119876      -0.68979882      -0.75530154      -3.78287952      -2.00543994 F F F
 C              9.14114783       3.77607728       1.35293417       0.04660630       0.00233282      -0.04482727       1.26910523       4.32038999      -3.46915459      -4.72899791 F F F
 C              7.71129049       7.96801750       8.07235571      -0.01575885       0.02816352      -0.01797447      -1.86450773       0.42257666       2.92950519      -5.10144701 F F F
 C              1.49694765       3.12287133       5.58653599       0.22591162       0.06754245       0.10148842       3.10668995       2.22061878       1.52724656      -6.34688752 F F F
 C              6.99059965       3.11548492       9.81089195       0.09506829       0.10415656       0.01776687       1.79311739       0.66218831      -1.00933410      -6.22566483 F F F
 C              0.25353086       5.11736481       1.07547948       0.07168323       0.01628665      -0.04842077      -4.16607321      -1.59356621       1.79584753      -5.93202264 F F F
 C              8.12722394       5.19927055       9.56991330       0.04002289       0.00139163      -0.04203574      -1.01766953       0.62691731       1.08855557      -8.19187548 F F F
 C              7.08015598       4.28555650       9.05146465       0.12960420       0.03073677      -0.02339215       3.40116412      -1.29627024       1.57789320      -4.55352361 F F F
 C              6.91427884       8.29527036       9.13528607      -0.01048467      -0.06295195      -0.03131299       1.81652947      -1.73867879      -2.28817295      -5.49107017 F F F
 C              8.47717657       3.20374924       8.82559375      -0.04919129       0.05362510      -0.04251405      -3.61492801      -0.16688610       1.71365601      -7.75453175 F F F
 C              0.82426089       7.90774658       4.87735919       0.00503724      -0.03921227       0.05869348       0.95707466       1.68945322      -0.48639695      -6.85750431 F F F
 C              1.67004957       0.03458357       6.79129532      -0.04929726      -0.51563171       0.09287717       0.44436188       1.68746630       1.90603017      -3.24201044 F F F
 C              6.20049433       5.52357381       2.04784113      -0.04950086       0.10417464       0.05524176       3.29379127      -0.26916803       2.94175501      -5.83573202 F F F
 C              4.75563849       4.21353109       4.79454088       0.01251475       0.11696086       0.02906535       0.22202862       1.25618459       1.28718406      -4.88659499 F F F
 C              8.34406737       6.29649235       0.34693348      -0.00920227      -0.04567173       0.00278668       0.22747521      -0.35312065       1.20781020      -6.83464476 F F F
 C              9.04302943       6.33213650       1.85896373       0.05333428      -0.01931611       0.00073288      -1.16799490      -1.82670583      -2.51237245      -6.84810057 F F F
 C              9.02790925       7.83287408       3.48869472       0.00501181       0.07037431       0.01849104       0.20384144      -4.20979433      -0.31950340      -6.68508424 F F F
 C              7.11266005       5.43127709       3.45250072      -0.13937078       0.12720303       0.29037309      -2.26062953       1.05585114      -4.52323205      -4.66338524 F F F