      50
 Properties=species:S:1:pos:R:3:velocities:R:3:forces:R:3:local_energy:R:1:fix_atoms:S:3 Lattice="9.9905032156        0.0000000000    0.0000000000    0.0000000000    9.9905032156    0.0000000000    0.0000000000    0.0000000000    9.9905032156" temperature=4825.84258619 pressure=19137.94863027 time_step=1.0000 time=1000.000000 energy=-242.652873 energy_soap=-325.96648937  energy_2b=82.97603148 energy_3b=0.33758502 energy_core_pot=0.00000000 energy_vdw=0.00000000 energy_exp=0.00000000 energy_xps=0.00000000 virial="-9.09705129           4.72244265     -6.38209934      4.72244265     -7.40326061     -8.23968276     -6.38209934     -8.23968276     -8.89802469" stress="0.00912302           -0.00473592      0.00640032     -0.00473592      0.00742439      0.00826320      0.00640032      0.00826320      0.00892342" volume=997.153669 step=1000
 H              3.52790552       9.37859446       6.25634941       0.15874297       0.04392071       0.01939815       1.46230364       0.11120170       0.39257120      -1.80506241 F F F
 H              7.46099119       3.23195794       1.06828625       0.05639908      -0.10490211       0.11445590       0.37749440       0.70422974      -0.32652009      -2.07123666 F F F
 H              8.60060840       7.48448513       0.85902497      -0.10433326       0.04653304      -0.01579696       0.55320706       1.35461526      -0.92017094      -3.02151390 F F F
 H              3.80847744       6.46637097       0.68142201       0.01715879      -0.11018917       0.02417779      -1.41043018       1.45118673       0.94499090      -1.51948822 F F F
 H              6.07832630       4.83967189       7.26993133       0.01307038      -0.05771071       0.00568980      -0.25629086      -0.14282444       0.79367404      -2.95880035 F F F
 H              2.46088781       6.27372452       5.06370167       0.09681837       0.08234834      -0.01378322       0.66261757       1.64043247       0.45229624      -1.06376423 F F F
 H              1.01977102       2.27420076       2.31308282       0.17061686       0.04173246      -0.03507503       0.00983000      -2.17512808      -0.92687983      -2.19323867 F F F
 H              4.69606372       4.66829537       1.05065459      -0.01361048      -0.11864903       0.00393178      -0.19162073       0.35861523      -1.28432511      -3.54796617 F F F
 H              6.07854808       4.18562838       2.21640224      -0.04668132       0.09914710       0.01330088       0.20288676       0.22704340      -0.62315693      -3.00036999 F F F
 H              2.61563389       3.97551192       8.83605310      -0.23618887      -0.01101041       0.11596445       0.69937364       0.33103240      -0.30069325      -1.75999071 F F F
 H              2.02057985       8.72479399       2.39915607      -0.01358503      -0.07497994       0.00950279       0.28915602      -1.33060801      -3.93573419      -2.69514030 F F F
 H              3.84244631       2.54528664       4.27223631       0.06281453      -0.09227480       0.04014796       1.50895200      -2.47061395      -0.46204681      -2.36812342 F F F
 H              5.53587531       2.54990277       2.58264927       0.10437278      -0.01215493      -0.09173480      -0.80429085      -2.35384735       1.23529317      -2.06440680 F F F
 H              5.11430779       8.80384416       7.50007397      -0.11333385       0.04333469       0.05240609       0.73589942      -1.35640149      -0.58137623      -1.98271255 F F F
 H              5.99681116       4.58888000       7.97696580      -0.01756368      -0.06426296       0.07404164      -0.30021712       0.58431279      -0.51944492      -2.96221118 F F F
 H              7.09214670       1.45330378       4.21412586       0.00822475       0.02794544      -0.04262060       2.61747520       0.37609992       4.58770165      -2.90131249 F F F
 H              8.75992113       1.80679905       7.97904303       0.15713685      -0.03248949       0.04147566      -0.65557998      -1.57283124       0.35231701      -2.97995567 F F F
 H              6.30378692       3.47860293       1.67563630      -0.07102638      -0.05491601      -0.01426800      -0.37690518       1.57939248       0.61109232      -1.74821179 F F F
 H              8.36513153       6.98424672       1.27496877       0.06463372      -0.02481464      -0.06465212      -0.34005893      -0.88292302       0.71475851      -2.88542267 F F F
 H              3.05741393       5.72269381       7.57604829       0.01642157      -0.04125748       0.07001747       0.22255773       0.65456626      -2.29786811      -2.51333763 F F F
 H              2.78765991       4.97014602       9.96386948       0.02692147      -0.07074424      -0.04438196      -0.91439070       0.51731637      -0.98120839      -2.61316991 F F F
 H              9.08096083       2.40946989       7.90744415      -0.14318154       0.01954126       0.03284207       0.79707913       1.22860140      -0.29893429      -2.93710293 F F F
 H              3.36258718       7.72903695       5.17681427      -0.07009888      -0.07953331      -0.09180607      -0.32843292      -1.18390387       0.37676781      -1.13086565 F F F
 H              7.06868690       1.92509643       1.08386626      -0.00528295      -0.04081909      -0.03833255       1.40642268      -2.32473896      -1.19630438      -3.05468403 F F F
 H              2.07470896       8.48840006       1.41268951       0.05045809       0.03816352       0.06665111       0.20499574       0.67336003       3.94276749      -2.53846417 F F F
 C              2.95948896       0.35548367       3.94981922       0.01748661      -0.00496023      -0.01280385       3.11109095       1.99006776       0.18763341      -7.09056504 F F F
 C              1.85926860       8.92516772       5.00071465      -0.01839681       0.00554758      -0.01328520      -3.43085086      -1.73836635       0.29002141      -7.94772537 F F F
 C              8.75094546       0.20425323       0.57331699       0.00350861       0.01527297      -0.00269903      -0.98738060       5.88212891       9.89120276      -3.89599857 F F F
 C              4.71939425       6.97454106       1.18039732      -0.01073821       0.00490286      -0.00921188       1.09644550      -0.28436781       1.99550443      -8.23570604 F F F
 C              1.04194928       0.95082634       2.03601568      -0.00781455      -0.02421665      -0.01990801      -2.34901048       1.67706287       0.34425566      -7.48060061 F F F
 C              3.38885990       5.45968992       9.16073370      -0.01098868       0.00005799      -0.01246292       4.58679651      -4.30753010       1.98101463      -7.72950044 F F F
 C              5.16197865       7.51959625       2.31153760       0.00978015       0.01250100       0.01567056      -1.02986896      -1.41357849      -5.09556178      -6.34630077 F F F
 C              1.94451525       0.91784656       3.33266263      -0.00385139       0.00148121       0.00859226      -2.12757229      -0.52909383      -3.02916945      -8.81671821 F F F
 C              4.59606892       5.45067767       0.22704636       0.00626832       0.00053922       0.00416794      -1.45043603       1.88949735      -0.76093492      -7.44598618 F F F
 C              8.79655358       9.60940136       9.49690173      -0.00439245      -0.00031579       0.03459076       0.69890603      -5.16706642     -10.00104943      -8.24949497 F F F
 C              3.78922898       4.88987195       7.81042050       0.02980277       0.00210018      -0.01617684      -2.13337059       0.64027193       3.74953789      -6.49005951 F F F
 C              6.93750293       9.46902059       1.02920677      -0.01033724       0.00948234       0.01521408      -1.76856093       1.01256078       1.63855889      -5.93158412 F F F
 C              5.56567851       7.54268679       3.64580068       0.01997216       0.01565363      -0.02185887       0.80188979      -0.18204393       3.32772658      -5.43742474 F F F
 C              5.37812947       9.27638266       1.49043061       0.00036927      -0.02059066      -0.02325975       0.94360849      -0.90327502       0.03030602      -7.46401472 F F F
 C              4.65955252       8.74220716       3.32946778      -0.01269929       0.01344397       0.02388638      -0.65951995       1.05897468      -1.42517186      -8.68024532 F F F
 C              4.50408222       8.84687884       5.85919534      -0.00296677      -0.01527958      -0.02016952      -1.34840887       0.14825855      -1.14469010      -7.93978477 F F F
 C              5.62191566       1.29056611       3.01925532       0.01333146      -0.00978081       0.00711478      -6.34192560       0.84044089       0.13896489      -6.94046035 F F F
 C              5.51512828       7.87540014       6.47758423      -0.01394063       0.00180005       0.00103856      -2.31355929       2.69136073      -2.17082682      -5.79449169 F F F
 C              0.01476797       0.39079996       1.24777548      -0.00442064       0.02379581       0.00718410       2.14509554       1.93525290       2.50117751      -9.10331929 F F F
 C              5.73215970       7.72093668       4.99022401       0.01678353      -0.02362102      -0.02079723       0.89173154      -1.34428412       0.88690528      -8.52498521 F F F
 C              6.64858221       9.24791756       2.45833191       0.00417738       0.01168331       0.01976175      -0.42667818       0.43451974       0.26087134      -7.88896864 F F F
 C              6.82666724       1.65408027       3.26287621      -0.00396823       0.00957183      -0.00517319       0.59121826      -0.66007998      -2.82662737      -6.64225207 F F F
 C              7.37444104       0.78963409       1.02298977      -0.01185990      -0.00763347       0.01157874       3.00117879      -0.24660248      -0.47054101      -7.92235232 F F F
 C              3.08094646       9.33001858       4.90796716      -0.02026990       0.01090463       0.01923860       2.91434835      -1.14067485       1.44019702      -5.99975434 F F F
 C              4.43593103       1.24421178       4.00079759       0.00096019       0.01374806      -0.00970496      -0.58720063       1.71838051      -1.48887189      -8.33802709 F F F
