      50
 Properties=species:S:1:pos:R:3:velocities:R:3:forces:R:3:local_energy:R:1:fix_atoms:S:3 Lattice="9.9905032156        0.0000000000    0.0000000000    0.0000000000    9.9905032156    0.0000000000    0.0000000000    0.0000000000    9.9905032156" temperature=6865.81554243 pressure=7928.60421141 time_step=0.5000 time=0.000000 energy=-248.451781 energy_soap=-340.11751810  energy_2b=89.34298795 energy_3b=2.32274884 energy_core_pot=0.00000000 energy_vdw=0.00000000 energy_exp=0.00000000 energy_xps=0.00000000 virial="-16.49619915          1.41031613      5.82798307      1.41031613    -30.68946906      5.93589904      5.82798307      5.93589904    -24.98320203" stress="0.01654329           -0.00141434     -0.00584462     -0.00141434      0.03077707     -0.00595284     -0.00584462     -0.00595284      0.02505452" volume=997.153669 step=0
 H              0.52578652       3.50584178       6.19824403       0.08138286      -0.07931032       0.00667867       0.62380175       0.41690596      -0.22000262      -3.00409122 F F F
 H              0.98964488       4.14678536       2.22576052      -0.07507954       0.00946247       0.05795704      -1.57611391       2.13957858      -0.51313510      -2.89939071 F F F
 H              7.84032000       6.91676125       9.32588425       0.26893930      -0.01693873      -0.14209601      -0.19968316       0.71869310       1.32754465      -0.88265291 F F F
 H              1.04968645       5.17327413       2.63680313      -0.06135846      -0.06116677      -0.09989136      -0.28362477      -0.57659035      -0.00840791      -2.59804587 F F F
 H              2.38569022       9.15506310       4.85095896       0.00398803      -0.00316311      -0.05616754      -1.16198320      -0.91144509       2.24425283      -2.28062413 F F F
 H              8.71282818       4.03679611       0.11545859      -0.05099746      -0.06046151      -0.03596277       1.51775664       0.01320588      -0.34400487      -2.48686241 F F F
 H              6.32174145       3.85689952       1.00427870       0.10630516      -0.01113994      -0.09874241       0.64363030      -1.84688606      -0.40620606      -2.19756275 F F F
 H              6.06717851       2.68458784       1.62825352       0.01696718       0.03367392       0.04657446      -0.09779332       1.57766593      -0.52701772      -1.81816921 F F F
 H              8.03070631       4.93875966       4.76437771      -0.04980572      -0.02363818      -0.00733053       2.55771978       2.32185394       1.36903478      -2.99054634 F F F
 H              1.64580879       2.78323302       0.37820347       0.06662766       0.00027314      -0.10149003       0.31272739      -0.66059752      -0.47281567      -2.38291345 F F F
 H              9.10106129       6.00518817       1.24061370       0.01712160      -0.09146497       0.04863029      -0.91373658       0.56073954       1.08934476      -2.85497782 F F F
 H              1.09781936       4.03243990       6.12826319       0.05548469      -0.02324783      -0.02776558      -0.80418171      -0.42645152      -0.11072270      -3.03208559 F F F
 H              4.97118442       9.11936056       1.04383710       0.02551053       0.04872333       0.06677886      -0.57624609       1.27288701       0.93365290      -2.68729867 F F F
 H              1.23622465       6.42567232       4.99230271       0.07219057      -0.02504126      -0.04288610      -2.79496436       0.23378976       0.28388898      -2.67146118 F F F
 H              3.55349646       4.58034879       1.67598048      -0.01167398      -0.07886094      -0.03212277       0.98879621      -0.72193943       2.77956776      -2.82914342 F F F
 H              9.75723910       2.90242443       0.91537603      -0.09072323       0.12439313       0.05113409       0.29383720       0.88835164      -0.95827242      -2.00789303 F F F
 H              8.67494455       6.68102610       1.80103917      -0.02246615      -0.05501040      -0.06462605       0.52323397      -0.13269788      -2.18243368      -2.66001268 F F F
 H              2.66277455       2.25638927       4.74500195      -0.02960148       0.01981564      -0.00528545      -1.01825866       2.86940440      -3.23771308      -2.58048191 F F F
 H              3.45392622       4.80134353       1.05569812       0.00521271       0.01666083      -0.03074803      -0.18312580       1.25621461      -2.72620086      -3.03760991 F F F
 H              8.16003949       1.56727274       5.74849387      -0.03010341      -0.02911842       0.02251051       0.21237085      -0.26309851      -0.08437728      -1.46661393 F F F
 H              7.11289542       3.70150032       0.25294109       0.00102721      -0.06049644      -0.06168483      -0.67305076       0.53765244       1.19061502      -2.59237288 F F F
 H              2.42061610       2.86911000       3.95192295       0.07106270       0.01533371      -0.05632650       0.70024982      -2.31929185       3.13611844      -2.75873259 F F F
 H              0.69179198       3.61804501       8.83161721       0.11441793       0.08691258      -0.00327451       0.20626712      -0.35073801      -1.37480370      -3.81135829 F F F
 H              1.94890299       3.35107030       1.43292636       0.01942340      -0.02435569       0.06922854       5.93506577      -3.60058657       3.10263010      -2.76470175 F F F
 H              5.58494323       7.85323966       0.27227827      -0.33713351       0.23548334       0.08854477       0.22712540      -0.83696694      -0.20494398      -1.69908436 F F F
 C              0.23723304       1.27834203       7.09001961       0.01786351       0.03223727       0.01744437       4.12425580       0.56444255       2.11408966      -7.48506612 F F F
 C              0.74471055       8.46127977       6.86899297      -0.00431956      -0.00725800      -0.01241814       2.18670458       0.58398353       0.48170704      -8.68824007 F F F
 C              9.79046566       7.73216522       3.55759939      -0.00543610       0.00034144       0.01192382       0.22343610       0.97563576       4.44336994      -7.75195306 F F F
 C              1.16661343       3.75020444       1.01931498      -0.00205435       0.00757034      -0.00443600      -3.72037711       1.22590884      -2.15358813      -6.85145314 F F F
 C              1.42735074       9.61582267       9.36247337       0.02937267       0.00817625       0.00490053       1.31167272       3.48246714      -1.39141141      -4.76521195 F F F
 C              5.26301258       9.94032508       0.35161970      -0.02986778       0.00276429      -0.00012661       3.11923108      -2.52191416       0.38129209      -6.95067236 F F F
 C              3.00505686       0.35514821       9.47806222       0.02953979       0.02291855       0.00849131       1.29416848      -1.44272339      -0.30810943      -8.92974573 F F F
 C              0.94891827       0.79766802       8.58129889       0.01507462      -0.00967549       0.00860867      -1.64260726      -0.93797030      -1.30745518      -9.13231931 F F F
 C              8.86914104       5.85105748       5.24029067      -0.02991401      -0.01243432      -0.03635020      -0.42863701      -0.99163539      -1.84253266      -6.36761729 F F F
 C              8.17542161       8.19711261       1.79812365      -0.01618860      -0.00822841      -0.00530748       0.03281583       2.98541182       0.95226939      -6.62384434 F F F
 C              1.27492316       8.75157456       5.64542722      -0.00831862      -0.01166505      -0.03447339      -0.20606923       0.47732343      -2.20558958      -7.24032354 F F F
 C              9.19240977       0.47245124       6.95282543      -0.03322929       0.00264444      -0.00212854      -1.23086616      -2.05208586      -3.12100086      -5.08533362 F F F
 C              6.66633444       9.54958899       9.79286829       0.03049834       0.01262916       0.03446877       3.10373282       1.87406476       1.32396502      -7.75375440 F F F
 C              0.37205386       3.76439146       9.83973770      -0.02528141      -0.01887038       0.04757822      -3.31530342       0.84726770       3.29434071      -6.99503367 F F F
 C              7.50917065       0.65681156       9.03073400       0.00969501       0.00063842      -0.00348650      -1.90078241      -2.53888364       0.32735083      -7.82442085 F F F
 C              7.56949727       9.02639718       0.85931094      -0.00363865      -0.03016538      -0.02555085      -0.89386755      -1.37305178      -1.32027406      -9.16128944 F F F
 C              9.30913793       0.18941702       5.18788662      -0.03700160       0.01031012       0.00979687      -0.54997406      -1.56157791      -0.41597640      -8.55496870 F F F
 C              1.77716184       7.66192541       7.99509619       0.02086063       0.01992615       0.02069784      -1.64248166       1.36602219      -1.96781391      -6.44959727 F F F
 C              8.48661783       9.23385223       2.91070681       0.00434303       0.01362045      -0.02953789      -1.59118062      -5.20679724      -6.71310347      -8.38975005 F F F
 C              2.13017766       8.82059201       8.54482708       0.00798710      -0.00501868       0.01699791       1.06412250      -0.71715877      -0.10087722      -6.89546529 F F F
 C              8.61611328       9.75141436       4.01702341      -0.00233802      -0.01808216      -0.03158769       0.58863429       3.51005855       5.24816657      -5.99792903 F F F
 C              0.31478051       8.99824351       4.50161803      -0.01352756       0.02716048       0.00877385       0.16390268      -1.36556035       2.07144458      -8.48921190 F F F
 C              8.27130820       0.53403380       7.91331280       0.00553508       0.01733129       0.00999611      -0.74839439       0.14864268       0.79094651      -8.76931507 F F F
 C              9.88805527       6.65340308       5.05054988       0.03458527      -0.01081036       0.02846504       1.38285925      -0.57461958      -1.65622055      -7.27761015 F F F
 C              4.64952097       0.18822678       9.19427371      -0.00825995      -0.04163002      -0.00839807      -5.18481512       1.08309640      -1.01058208      -7.02696799 F F F
      50
 Properties=species:S:1:pos:R:3:velocities:R:3:forces:R:3:local_energy:R:1:fix_atoms:S:3 Lattice="9.9905032156        0.0000000000    0.0000000000    0.0000000000    9.9905032156    0.0000000000    0.0000000000    0.0000000000    9.9905032156" temperature=5871.90243157 pressure=6666.43628072 time_step=0.5000 time=20.000000 energy=-248.785031 energy_soap=-332.18877788  energy_2b=83.44638485 energy_3b=-0.04263784 energy_core_pot=0.00000000 energy_vdw=0.00000000 energy_exp=0.00000000 energy_xps=0.00000000 virial="-7.36504096          -3.76386007     -3.81196062     -3.76386007    -20.02364688      0.60187904     -3.81196062      0.60187904    -34.54643530" stress="0.00738606            0.00377460      0.00382284      0.00377460      0.02008080     -0.00060360      0.00382284     -0.00060360      0.03464505" volume=997.153669 step=40
 H              2.31244251       2.71460583       6.39329077       0.06315553      -0.02001138       0.00209106      -1.31458566       0.37073322      -0.85216595      -2.97694945 F F F
 H              9.80122908       4.62023063       3.27354833      -0.03664123       0.07199038       0.04241921      -0.19048848       1.01462745      -0.00594890      -1.85073368 F F F
 H              3.51506984       6.12698416       7.21837552       0.23380272      -0.05604952      -0.09009929      -0.62356895       0.90424837       0.22850730      -0.48760317 F F F
 H              1.67457535       4.88174027       1.79559086       0.08980381      -0.01393536       0.01629723      -1.18423896      -3.12562603      -1.52023445      -2.79941666 F F F
 H              2.06999383       7.88271375       5.18635525      -0.10578371      -0.04091519      -0.04762200      -1.13883094       0.91355849      -1.57730384      -2.55454708 F F F
 H              0.69572481       2.71475510       8.90724738       0.10059152      -0.09919145      -0.01661490      -0.51394529      -0.12867906      -0.01312296      -2.05859872 F F F
 H              7.18773456       2.83347146       0.36601639       0.01312648      -0.02980620       0.03820581      -0.76657004      -0.04085431      -0.17126097      -2.25992978 F F F
 H              6.82365545       4.43559208       0.73390383       0.05269049       0.08020535      -0.12558863       0.00431147      -0.64819871      -0.21002178      -1.53979325 F F F
 H              8.57446688       5.02334784       4.86554545       0.01360068      -0.06478786       0.00154486      -1.74392487      -0.08857226      -0.74860271      -3.13513925 F F F
 H              1.85884770       3.24004903       0.34853811       0.03738823      -0.01192398      -0.00149908       5.59113000      -5.39638235      -8.29997295      -3.22008948 F F F
 H              7.94327961       6.31120260       1.08232422      -0.06813601       0.08787711      -0.07303086       0.73057955      -0.38839991      -0.15477783      -2.92315833 F F F
 H              1.63965124       2.90261625       6.02075928       0.03768075      -0.07997498       0.01232233       1.12852684      -0.73423238       0.87428550      -2.97717154 F F F
 H              5.13143606       1.00041015       0.50023616       0.00709285       0.05492065      -0.09885638       0.62470246      -0.89582333       1.04025613      -1.87774064 F F F
 H              0.75591812       5.58074501       4.93627336      -0.07745575       0.00400442       0.07096996       1.70989781       0.35338463       0.90794210      -3.04440049 F F F
 H              3.78707032       4.00177228       0.79908154       0.05403709      -0.03560964      -0.03684102       0.44082626       0.27926529       0.18519863      -3.03665171 F F F
 H              8.65389464       3.92319184       0.41366975      -0.08249614      -0.03524914      -0.03985693       1.68676238      -0.73476783       0.48630705      -3.74931022 F F F
 H              8.53822159       5.83905726       0.72820156      -0.04669353       0.00818737       0.02462748      -0.92319063       0.76656770       0.38009608      -2.74398644 F F F
 H              2.75315915       3.30961786       3.02661409       0.07209916       0.00205350      -0.05115633       0.81678751      -1.88081575       2.60729039      -3.11374055 F F F
 H              3.49721693       4.68497045       1.00287476       0.00354944       0.02096047       0.01969026       0.61947989      -0.14678597      -0.14002281      -2.83639276 F F F
 H              7.66393294       1.05503842       5.72534380      -0.08162763       0.03872383      -0.04370931       1.10336483      -0.77047579      -0.46479839      -1.64201918 F F F
 H              7.00185359       2.27372104       9.76782936      -0.00639013      -0.09789892      -0.01668577       0.01603952       1.34911361       0.34922798      -3.29648750 F F F
 H              3.02285455       2.80555415       3.81460270      -0.05544026       0.06190465      -0.06414896      -1.11043244       1.89351285      -2.76067887      -2.77494502 F F F
 H              0.13493366       4.66779822       0.58309661      -0.08297658       0.03439356       0.11444407      -0.50164535      -1.36246215      -0.20009082      -2.75361883 F F F
 H              0.78732923       2.78444177       1.80588326      -0.05684324      -0.02173111       0.03486214       1.16693237       1.67362426      -0.87005934      -2.59589339 F F F
 H              8.99192935       1.74133969       0.84270810      -0.29435905       0.22526543      -0.07787467       0.85352403       1.49544401      -0.47232211      -1.80569408 F F F
 C              0.41998649       1.37788969       7.68184504      -0.00877138      -0.01722519       0.03146201      -4.24621851       2.75469929      -3.82408595      -6.90244952 F F F
 C              1.02401605       8.43532466       6.68342852       0.02629600       0.00143138      -0.00136025       0.58287444       0.27284543       1.24877038      -8.23716856 F F F
 C              9.66742346       7.91237332       4.29220491      -0.00225363       0.01211020       0.05190740       2.21003326      -0.48988472       0.98375065      -9.96331885 F F F
 C              1.42679433       3.68751788       1.00014187       0.00879370      -0.00311310       0.01436602      -8.07365565       6.58017744      12.30377444      -6.41911604 F F F
 C              2.16583006       0.32707552       9.44712773       0.02857053       0.03996126      -0.00510878      -5.84262055      -2.63097790      -3.58527255      -6.62515388 F F F
 C              5.37432808       9.77601464       0.36259936       0.03198812      -0.00307923      -0.00946819       0.73620155       2.42596470      -1.92620772      -8.55452302 F F F
 C              3.43164839       0.66285486       9.52083979       0.01135159       0.01543117      -0.00271045       1.98791783       0.35718350      -0.42004769      -6.54817148 F F F
 C              1.04240865       0.64121266       8.45522581       0.00899503      -0.00798134      -0.01141312       5.98032802      -4.54022763       4.52383262      -8.10735373 F F F
 C              8.94488352       5.98793908       4.59036725       0.02488459       0.01707477      -0.02921028      -8.62307558      -4.65011469      -3.74358498      -6.38492326 F F F
 C              7.93917817       8.12867450       1.73459148      -0.01089286      -0.00568410      -0.01011668       0.17521328       2.37389197      -1.65945144      -6.39018864 F F F
 C              0.99678652       8.45771928       5.16141485      -0.01841993      -0.02498185      -0.00304535      -1.31424372      -2.36169836       2.16849203      -7.45903120 F F F
 C              8.99216204       0.67498035       6.66164059       0.00736673       0.01674949      -0.00001136       0.20847215      -0.02778951       1.92262028      -8.09678595 F F F
 C              6.94539219       0.06929414       0.31480558      -0.00525848       0.01285017       0.01188364      -0.38627937      -4.77539079      -2.68475790      -6.89768015 F F F
 C              9.67231639       3.53561784       0.67610320      -0.03427953      -0.00812997       0.02565804       0.31948116       1.52691709       0.17824042      -6.43259230 F F F
 C              7.46882513       0.42318656       9.08452498       0.00253069      -0.01557540      -0.00201829       2.13197854       0.09505135      -1.22560860      -7.91000008 F F F
 C              7.45278424       8.34936629       0.37247846      -0.01138209      -0.02059827      -0.01945351      -0.42300152       3.88318176       2.74183473      -7.79833693 F F F
 C              8.68757670       0.10248720       5.27679781      -0.01719831      -0.01805858       0.00195506      -0.73152058       1.37600548       3.00683389      -7.67618908 F F F
 C              1.77233102       8.02074560       7.85941599      -0.00563174       0.03794219      -0.02213625       0.83937626       2.82754578      -0.28065657      -6.62336672 F F F
 C              8.58661634       9.26615433       2.33687025       0.01424477       0.00793997       0.00025822      -0.52323555      -1.30915766       1.26884054      -7.88724660 F F F
 C              2.50167977       8.72410239       8.89795432       0.01343365      -0.01418200       0.00940231      -1.91796848       0.04573529      -1.56246545      -8.85201557 F F F
 C              8.70426614       9.63338654       3.78312748       0.00739403      -0.00267872      -0.01128524      -1.41765525       0.50423930      -2.11182527      -7.90942305 F F F
 C              9.76551854       9.35634648       4.75297937      -0.03524044       0.01091951       0.00711507       2.26079415      -0.52439364      -0.27704866      -5.55153867 F F F
 C              8.36201399       0.83904875       8.05880501      -0.00030496       0.00881367       0.00433749      -1.36338109      -1.68007753       0.11134459      -8.04350140 F F F
 C              9.97444619       6.29428776       5.14787259      -0.00839011      -0.01726649      -0.01895576       8.97425850       3.77130865       2.73658611      -6.28489640 F F F
 C              4.24809105       9.52593167       9.24431274      -0.00964223      -0.02968337       0.02210069       1.97448338      -0.47703862       1.50836562      -7.17604857 F F F
      50
 Properties=species:S:1:pos:R:3:velocities:R:3:forces:R:3:local_energy:R:1:fix_atoms:S:3 Lattice="9.9905032156        0.0000000000    0.0000000000    0.0000000000    9.9905032156    0.0000000000    0.0000000000    0.0000000000    9.9905032156" temperature=5879.14968353 pressure=17626.71955799 time_step=0.5000 time=40.000000 energy=-252.554140 energy_soap=-346.85314936  energy_2b=92.29865696 energy_3b=2.00035247 energy_core_pot=0.00000000 energy_vdw=0.00000000 energy_exp=0.00000000 energy_xps=0.00000000 virial="-19.68138490         -7.13918668    -10.06893139     -7.13918668     -2.36620000      0.42066800    -10.06893139      0.42066800    -19.51514433" stress="0.01973756            0.00715957      0.01009767      0.00715957      0.00237295     -0.00042187      0.01009767     -0.00042187      0.01957085" volume=997.153669 step=80
 H              2.57481838       1.95509212       6.11174512      -0.00884365      -0.08714078       0.02423178       0.37346082      -0.97551925       1.60356736      -2.82230933 F F F
 H              9.00904534       6.10606805       2.04673924      -0.06709371      -0.00272553      -0.04487748      -0.56996158      -1.29000833       1.19057002      -1.61992537 F F F
 H              8.25926074       5.17853285       5.19057466       0.24791899      -0.04256718      -0.15083465       0.55948786      -0.17129757      -1.14768513      -2.33210054 F F F
 H              1.29802776       4.66837890       1.12378035      -0.11130491       0.06966132      -0.10829589       0.47497131      -1.91757710       0.98576029      -3.90947226 F F F
 H              1.47860598       8.07427346       4.52494245      -0.05406365       0.02866269       0.10086631       0.88257065      -0.85270859      -1.44382930      -2.50705809 F F F
 H              0.26325314       2.28773415       7.75479756      -0.15157230       0.01407929      -0.08866073       0.96504924      -1.21380289       1.29068099      -2.54344917 F F F
 H              5.94862559       2.20784101       9.98059208       0.06027100       0.03524499      -0.03147458       2.06894503       0.09792490       1.26219238      -2.84425997 F F F
 H              8.06995648       4.22682923       9.18602579       0.06525092      -0.08757404       0.03968869       0.34483654      -0.20020029       2.05219324      -1.30418015 F F F
 H              7.71809715       5.79703363       4.41666632       0.00095065       0.08123803      -0.00953461       1.48299729       0.61674136      -1.56349858      -2.86513708 F F F
 H              1.59514092       2.64773501       0.38382772      -0.03787107       0.02854455       0.05865045      -0.66070413       2.42124199       2.49534383      -3.17253674 F F F
 H              7.33171902       6.47995454       0.13137507      -0.01360677      -0.03351144       0.00567884       0.91747271       0.33465619       0.19095748      -3.17658528 F F F
 H              2.75383560       1.50122399       6.79009528       0.05605819      -0.01948276       0.02134087      -0.56904569       0.89496327      -1.04843884      -3.05995806 F F F
 H              4.12033629       2.30574674       9.17991892      -0.06760353       0.13098335      -0.06775244      -0.46801280      -1.84240383       0.11458310      -1.87767102 F F F
 H              0.26734884       5.92878582       6.30651718      -0.05510890      -0.00106298      -0.00643916      -0.00875835      -0.21783979      -2.98845926      -2.67446773 F F F
 H              5.33506318       4.13047870       0.37159007       0.09918709       0.03956469      -0.02392213      -1.78091473       2.70064244       0.59842794      -2.59707497 F F F
 H              9.73221544       3.94990344       0.39899660       0.02227379       0.00531232       0.11701569      -0.41101092       0.65781056      -2.90335063      -3.57603837 F F F
 H              6.76630127       6.00029233       0.26335756      -0.10209346      -0.03057710      -0.10764395      -0.95895286      -1.04247981      -0.25398656      -2.31874553 F F F
 H              3.18049403       3.01195861       2.95892170      -0.03793657       0.03277681      -0.06554657      -0.26178975       0.94354698      -2.44848719      -2.93977197 F F F
 H              4.62599289       4.41011456       0.78803385       0.02382312      -0.01105186      -0.00231401       0.67447076      -0.21923090      -0.42712265      -3.35542349 F F F
 H              7.41469004       0.11236499       4.84216238      -0.08074994      -0.00893513       0.05551484      -0.87137019       1.19683083       2.43454138      -1.90942276 F F F
 H              6.41490989       2.84749009       0.54297267      -0.06404192       0.08433437       0.06614375       0.18835184      -2.21460815      -1.40036768      -2.53149292 F F F
 H              3.05864630       3.31507497       2.12067150       0.06275057      -0.06874575      -0.01104168      -0.13646770      -0.42033902       2.20392590      -2.99802158 F F F
 H              8.54914976       3.51523027       2.00414624      -0.05714299      -0.06428157      -0.03139774      -1.86513774      -0.59663019       2.59443224      -4.19272641 F F F
 H              0.76421580       3.11847092       2.21390324       0.08515740       0.02962155      -0.01239768       0.24452102       0.29296376       0.05282166      -3.74352166 F F F
 H              5.40326097       6.59248313       9.56887171      -0.12292640       0.21046805      -0.06407949       0.11387512       0.04901732       0.43781137      -1.49252540 F F F
 C              0.01036286       1.11311448       8.01096560      -0.00743863      -0.01653349       0.01177306       2.54977313       1.43091505      -0.27786056      -8.82373392 F F F
 C              1.44404877       8.46662175       6.42459617       0.02463515       0.00384983       0.00270977       0.55294298       0.07023156       4.41853038      -9.19949890 F F F
 C              9.31123425       7.95300932       5.20457673      -0.02785886       0.00086945       0.03670554       2.91276457       2.14605951      -0.74187841      -8.55010524 F F F
 C              1.29642064       3.58280719       1.40641291      -0.01865209      -0.01500300       0.02458370      -0.17758427      -1.02805087      -2.42088839      -5.86149090 F F F
 C              2.56416713       0.90599523       9.14849872       0.02575517       0.02496618      -0.01519556      -5.11154289       0.78577378      -2.01750863      -8.31860384 F F F
 C              5.57358648       9.73029114       9.96031217      -0.01644201      -0.01321603      -0.02256529      -0.66172474      -0.71813918       0.00126470      -9.89998871 F F F
 C              3.75746106       0.65088506       9.48305687       0.00857681      -0.02703753       0.00067489       3.35169745      -0.93940987       1.01633528      -7.41335594 F F F
 C              1.45894858       0.17306104       8.36640378       0.00259099      -0.01748424      -0.01580369      -3.59050010       7.21939817       1.42699766      -7.89617822 F F F
 C              9.03364695       5.78729930       4.04780759       0.02390062      -0.01076249      -0.00394991       1.26606241       0.48633349       4.56251806      -5.82164172 F F F
 C              7.82117090       8.54675749       1.46882431       0.00376048       0.03531012      -0.00481886      -3.31473251      -3.91815536      -3.02283855      -7.41340803 F F F
 C              0.91371000       7.82627351       5.38985598       0.01011833      -0.04364471      -0.00388780      -3.87910568      -0.80889367      -1.85501754      -6.80032854 F F F
 C              9.13560858       0.90890726       6.87720190      -0.00266786       0.00078781       0.01129376      -1.97754207      -2.00177623      -3.15799784      -5.23143379 F F F
 C              7.08658270       9.66657244       0.13678572       0.01375161      -0.02671132      -0.02609759      -3.69727539       8.72926753      -2.28137508      -4.08254975 F F F
 C              9.12748098       3.73777585       1.20519748      -0.01631210       0.02186815       0.01890080       1.77565111       1.53425446      -1.81415961      -4.00488039 F F F
 C              7.74385305       0.23155391       9.02161805       0.01229479      -0.00841541       0.00744285      -0.46987586       1.08805664       0.02052570     -10.35137106 F F F
 C              7.22884311       8.41824559       0.28827547      -0.01369401       0.00283167      -0.00880396      -1.41153738     -10.32145503      -2.04336228      -6.62211871 F F F
 C              8.22763824       0.21506167       5.89202902      -0.00265501       0.01635605       0.04178004       2.96808705      -0.84867650      -2.27108469      -8.53092947 F F F
 C              1.94510548       9.08492878       7.83696660       0.00688178       0.05577460      -0.00416174       2.06914125      -6.03907534      -3.60810916      -5.42514669 F F F
 C              8.63205901       9.12359355       2.16677075      -0.00520219      -0.01454543      -0.01346666       5.68476961       4.92857603       8.23954317      -7.24592617 F F F
 C              2.71714155       8.41745362       8.85242676       0.02486326      -0.01932829       0.00007658       1.84053406      -0.20250991      -0.08685863      -8.61152963 F F F
 C              8.82867283       9.68443252       3.44519191       0.01834737       0.00362558      -0.00547988       1.85821895      -0.84362733      -0.00250431      -8.83259531 F F F
 C              9.27908826       9.50129876       4.83537909      -0.03322042       0.00405895       0.00301508      -1.69469400      -1.34016554       1.27793711      -7.63318624 F F F