      50
 Properties=species:S:1:pos:R:3:velocities:R:3:forces:R:3:local_energy:R:1:fix_atoms:S:3 Lattice="9.9905032156        0.0000000000    0.0000000000    0.0000000000    9.9905032156    0.0000000000    0.0000000000    0.0000000000    9.9905032156" temperature=5743.51811016 pressure=67.86217611 time_step=0.5000 time=0.000000 energy=-207.296012 energy_soap=-226.50318156  energy_2b=18.36274393 energy_3b=0.84442611 energy_core_pot=0.00000000 energy_vdw=0.00000000 energy_exp=0.00000000 energy_xps=0.00000000 virial="-18.43601502          4.83709642     -3.17260815      4.83709642    -31.72825553     11.11273784     -3.17260815     11.11273784    -22.46489760" stress="0.01848864           -0.00485090      0.00318166     -0.00485090      0.03181882     -0.01114446      0.00318166     -0.01114446      0.02252902" volume=997.153669 step=0
 H              0.59742179       9.28483225       6.87294848      -0.08469727       0.04329462       0.03931139       1.11729307       0.86949411       0.48713436      -2.65378860 F F F
 H              1.95618198       4.93424495       7.93096759       0.00545325      -0.00610088       0.05725669      -0.49986521       0.40223210      -1.00076112      -2.12880510 F F F
 H              9.26688551       8.49950482       4.79056374       0.02835636       0.07356601       0.04268610      -0.73338425      -0.92115158      -0.91868558      -2.07854067 F F F
 H              3.50555170       2.62555679       7.11205356       0.04259684      -0.08156637       0.00037653       0.25842239      -1.37326837      -1.34168238      -2.95827762 F F F
 H              8.80063229       7.60539329       4.29473654       0.11969134      -0.00691184      -0.01556551      -0.16221597       1.02282172       0.02993312      -2.77398975 F F F
 H              4.29297233       4.93998246       3.11935963      -0.04121111      -0.04019047       0.11080794       1.45374342      -0.93515855      -1.05055676      -2.93128298 F F F
 H              3.74096906       2.01692122       6.57527797      -0.03804458      -0.08824238      -0.01083584      -0.28836938       1.82917113       1.06627422      -2.87841610 F F F
 H              1.20120658       0.16819662       0.99144929       0.09282191      -0.01872296       0.04610159       2.09608853      -0.87449295       2.75034534      -2.76522091 F F F
 H              5.38608869       1.14208172       2.40344033       0.02046923      -0.06806871       0.11325606       1.94997044      -0.10791768       0.17902297      -1.53404426 F F F
 H              2.98874456       3.13560011       3.30660334      -0.05953955       0.03391051       0.07365257      -0.29180162       0.48044532      -0.24471590      -0.72304779 F F F
 H              7.36591210       7.25006107       7.68920766       0.02971907      -0.09515172       0.03431929      -1.00313699       2.12811470       0.90485992      -1.73982017 F F F
 H              8.03218723       0.14090557       3.56411589       0.12621246      -0.03811108       0.10176466       0.78791351       0.64834523       1.44663970      -2.35307056 F F F
 H              2.53242383       5.75046184       5.60814650      -0.09227385      -0.13942867       0.02383876       3.58240687      -2.88963095      -4.26443996      -2.96691163 F F F
 H              7.40421902       0.57152744       3.45091909       0.03331777       0.13307137       0.02621590       1.34410026      -0.08292133       1.19881313      -1.63396012 F F F
 H              5.21951945       8.28688560       4.03521817      -0.07865879      -0.01386194      -0.04110638       2.29485051       1.40077831      -0.90384495      -1.72513574 F F F
 H              7.31280003       5.66470276       3.16845143       0.00899217       0.09561896      -0.03874567      -1.03510079       3.54888575      -0.99268792      -2.61609146 F F F
 H              1.24939931       9.43256471       6.37599594      -0.16718165      -0.00042553       0.08226324      -0.02216166       0.08002065       1.28871961      -2.63164572 F F F
 H              3.23772449       8.47963047       6.99185595       0.03306761       0.11508024       0.09867532       0.58917342       0.14043088      -1.06445614      -0.62743312 F F F
 H              1.36618764       3.24690101       6.46933501      -0.02951636      -0.02092192       0.07575690      -1.13391592       0.44276142      -3.95610795      -2.65843914 F F F
 H              7.09621129       6.71054906       2.91882298       0.10155516      -0.13999641      -0.03778181       0.73051675      -3.03835642       1.22292936      -2.53548614 F F F
 H              2.15963651       7.09302802       7.10270013       0.01502949      -0.14829156       0.01847118      -0.20719313      -1.90975719      -0.90045999      -3.07830683 F F F
 H              0.86421956       4.66804928       8.77059692       0.02490474       0.02396647      -0.00233436       1.91405006       0.66062546      -1.67593558      -2.23305721 F F F
 H              0.99324965       3.24564090       5.42185580       0.04370229      -0.06399260       0.03917406       1.81060819       0.13385583       4.21739165      -2.37758641 F F F
 H              5.24426804       3.16399934       5.64018807      -0.06746346       0.03699454      -0.08467454      -0.34784978      -0.19965091       0.09606839      -0.76780741 F F F
 H              4.96478428       4.73393853       2.65206909      -0.04673350      -0.11081749      -0.06427098      -1.28383374       0.49939676       1.11715647      -2.98412357 F F F
 H              0.30561871       8.46013935       5.28752382      -0.02992740       0.03505994       0.07233017      -0.78790825      -1.20834696      -1.60348485      -2.82774848 F F F
 H              5.98052525       0.79338538       8.71670804       0.03842838       0.01339329      -0.08314503      -0.27688755      -0.00465647       0.43998019      -1.23539062 F F F
 H              1.72335880       9.89221006       1.70710147      -0.01546367      -0.05873841       0.00698574      -1.99749517       0.92434436      -2.75927117      -2.77355524 F F F
 H              0.75692215       6.64222690       5.51798162       0.07005755      -0.16873749      -0.02001079       2.73615519      -0.51237648       1.47848489      -2.24772548 F F F
 H              8.84452547       4.94308838       2.06458112       0.01243356       0.04019045       0.04536787       0.13754499      -0.29876250       0.91080691      -1.90207432 F F F
 C              7.47302727       3.33723799       9.96529100      -0.00614195       0.02724229       0.01459327      -0.83517591      -0.11178933       1.32716376      -6.46291394 F F F
 C              9.27228174       2.41387712       0.33094407      -0.01396822       0.00718182      -0.02550088      -0.02823391       1.16262456      -1.12512535      -7.38064524 F F F
 C              5.61730083       8.60157151       7.11482459      -0.00496078      -0.00089355      -0.01964428       2.63129941      -0.93358821       2.28768182      -7.64163904 F F F
 C              9.77031174       3.93594727       0.41505229      -0.03885258       0.00894849      -0.02036073       0.67389683      -1.41331518      -1.46347063      -6.96940921 F F F
 C              2.10597871       6.24975492       6.29599258       0.00608013      -0.03616660      -0.01007806      -5.51062682       5.24549285       4.56122870      -6.19097359 F F F
 C              0.70950519       3.33385827       1.73454348      -0.01292446      -0.00893344      -0.02110181      -2.50598061       1.56881805      -0.62700993      -5.90876129 F F F
 C              9.07646587       3.82616863       2.21806285       0.01989361      -0.01480426      -0.03256205       0.82991244      -0.78134078       0.18762354      -6.81268650 F F F
 C              6.31081297       8.84765587       3.11674091      -0.01724508      -0.00853933      -0.00794730      -2.19663657      -0.64075932      -2.69050736      -8.54497214 F F F
 C              9.84695605       5.11963404       9.08492122      -0.02451910      -0.01933523      -0.01917594      -1.36486404      -3.35173918       4.10488985      -4.63738686 F F F
 C              4.70659207       8.01917297       6.40987859      -0.01842603      -0.00579009       0.02260237       0.81187564       1.12559080       1.28224603      -6.43499875 F F F
 C              8.26867846       2.36348140       2.10077524      -0.02311028       0.00899919      -0.00075947      -0.24597971       2.97251527      -0.87314978      -7.58332876 F F F
 C              3.73085933       8.13726156       5.58327601      -0.00303719       0.02462273       0.01698302      -4.18467661      -1.61634413      -0.12957892      -8.01678987 F F F
 C              6.13857257       2.97076981       9.84656773       0.02199472       0.03018299       0.00857259       1.32334984       0.05626545       1.11025813      -5.94554895 F F F
 C              5.82125268       9.28296981       1.67192396       0.02130666       0.01267362      -0.01508956      -0.14792797      -2.77215194      -0.41980030      -6.50910411 F F F
 C              7.37934881       0.56605308       0.81053408       0.01655245       0.00167118       0.02266578      -0.62671469       0.41671137      -0.27963588      -7.49231851 F F F
 C              6.47792834       0.34840701       2.21347522       0.00042976      -0.00766766      -0.02259847      -1.91099413       0.67636986       0.40833133      -7.19068769 F F F
 C              7.94087113       1.36170123       9.83178423       0.01931545      -0.01799937       0.04029195      -0.31045561       1.07814841       0.90179871      -7.32228722 F F F
 C              6.63531714       8.50010456       8.04244338       0.02240679       0.01841742      -0.02881559      -0.75191512      -1.33297982      -0.40738990      -7.53488901 F F F
 C              6.78934095       3.70622882       1.42667444       0.02314776       0.01562398       0.02908271       1.01723772      -2.03958604      -2.35837595      -7.43131328 F F F
 C              6.40376522       9.49228210       9.88406632       0.00397683       0.02041706       0.00912200       0.60089164      -0.16421811      -1.95464784      -7.94457440 F F F
      50
 Properties=species:S:1:pos:R:3:velocities:R:3:forces:R:3:local_energy:R:1:fix_atoms:S:3 Lattice="9.9905032156        0.0000000000    0.0000000000    0.0000000000    9.9905032156    0.0000000000    0.0000000000    0.0000000000    9.9905032156" temperature=5564.24447707 pressure=24084.10141650 time_step=0.5000 time=10.000000 energy=-209.017510 energy_soap=-239.12297245  energy_2b=28.54686107 energy_3b=1.55860163 energy_core_pot=0.00000000 energy_vdw=0.00000000 energy_exp=0.00000000 energy_xps=0.00000000 virial="0.69211293           -1.64213442     -6.29407397     -1.64213442    -14.15819515     -3.21374511     -6.29407397     -3.21374511    -12.05086605" stress="-0.00069409           0.00164682      0.00631204      0.00164682      0.01419861      0.00322292      0.00631204      0.00322292      0.01208526" volume=997.153669 step=20
 H              9.65104508       9.89676586       7.88649671      -0.06304616       0.05512185       0.08309824      -2.12616716       0.78569192       2.08953897      -2.92165608 F F F
 H              2.02416432       4.69622771       8.30110357       0.04106353      -0.06241744       0.02273128      -1.48873177       0.35238856       0.18998581      -2.35937346 F F F
 H              9.55791985       8.82411546       4.89785115       0.03092129       0.00642838      -0.01837922       0.78941584      -1.53135144       0.35583235      -2.42490128 F F F
 H              3.93092926       1.78448461       6.94815127       0.02394842      -0.09039135      -0.04566430      -0.65763983      -0.29332479      -0.85228275      -2.96362697 F F F
 H              9.76714161       7.66384462       4.00678646       0.07246043      -0.00833866      -0.06097094      -0.29858936       0.02686799      -0.41738776      -2.05418156 F F F
 H              4.50232366       3.94031314       3.54738891       0.04656623      -0.12001684       0.06137655      -0.49764173      -0.11280398      -0.52760710      -1.84124600 F F F
 H              3.37383268       1.37758810       6.50133072      -0.01168644      -0.03522992       0.00998282       0.92340739       0.76094720       0.64182145      -2.85857049 F F F
 H              2.08215928       9.91715324       1.48495543       0.04452717      -0.09544108       0.09082192      -0.33170278      -0.37805676       0.14397878      -2.98960607 F F F
 H              6.26282842       0.77164789       3.29983065       0.13704609       0.00729989       0.03563348       0.48226520       0.35223324      -1.76519929      -1.53067912 F F F
 H              2.36952257       3.68304716       4.10623835      -0.05961961       0.07110852       0.10847996       0.05146809       0.31842196       1.19185560      -1.64084317 F F F
 H              7.19245792       7.43181990       8.23814893      -0.05567518       0.14100798       0.05731099      -0.45654830       2.79612703      -0.33511642      -2.03094234 F F F
 H              8.59959262       0.56348507       4.49482186       0.01830392       0.03005819       0.12674382       1.87596328      -9.88003491       8.58264065      -2.32083250 F F F
 H              2.44528192       4.33740467       5.73559899       0.05379520      -0.08375930       0.02936778       0.28931932       1.33472807      -0.76294441      -2.19042985 F F F
 H              8.51462259       0.98329374       4.14025386       0.12547619       0.06376971       0.02636272      -2.31563400      10.55172871      -8.96367313      -2.58597026 F F F
 H              5.27224986       8.53276020       3.39669173      -0.00813788       0.00687161      -0.01930071      -5.25993874      -2.27506525       4.17298134      -1.79218889 F F F
 H              7.28248502       5.75617708       3.16685734       0.04965558       0.06165300      -0.08486985       2.18094758       2.55914735      -3.11057636      -2.03809902 F F F
 H              0.09974051       9.70874638       7.42097907      -0.12894820       0.04777351       0.14966819       1.90900471      -1.12878278      -2.44109704      -2.93207346 F F F
 H              3.75439186       9.48747184       7.61660850       0.07495955       0.06498625       0.02357120       0.67428841      -1.23294012      -0.82636654      -1.12348362 F F F
 H              0.87774495       3.17774557       6.77018039      -0.00465483      -0.03611331       0.02158566       2.58229086      -1.71267214      -1.20708708      -2.35969490 F F F
 H              7.89648316       6.48260863       2.35173182       0.00873658      -0.05891851       0.04064139      -2.22253092      -2.36053968       3.20023029      -2.08191350 F F F
 H              2.43323367       5.91335781       7.31044867       0.05248512      -0.05644143      -0.07071595       0.76286842       1.17431957      -2.75361773      -2.92356854 F F F
 H              1.27609068       5.17369585       8.39617670      -0.02178237       0.04807586      -0.01524603      -0.11411918      -1.56721082       0.57963715      -2.25672200 F F F
 H              1.77230114       2.57985636       6.29456939       0.03216944      -0.03799898       0.09611200      -2.72766340       2.02965088       1.45664565      -2.61115688 F F F
 H              4.34359370       3.51199736       4.74669717      -0.11335915       0.03130686      -0.09669349      -0.25255146      -0.00482219      -0.29694670      -2.38588430 F F F
 H              3.99530445       3.98346092       2.77268582      -0.10507273      -0.06674948       0.00824226       0.74316855      -0.03827903       1.06854506      -2.95880219 F F F
 H              9.82474829       8.32685096       5.46337383      -0.02432356      -0.03330279       0.04326750      -0.12453403       0.84250797       0.21647350      -2.64626074 F F F
 H              6.36228049       0.90034737       8.28263484       0.04033814      -0.00137732       0.00232538       0.06235683      -0.71132615       0.97286809      -1.21185909 F F F
 H              1.66638822       9.35068127       1.74289246       0.03899223       0.01673406      -0.03910263       0.24729956       0.32851386      -0.15690413      -2.99755955 F F F
 H              1.29394228       5.17588266       5.42990285      -0.05375511      -0.11124849      -0.04590625       1.41080281       1.95593401       1.84792784      -2.45070468 F F F
 H              9.31689654       4.55718597       2.60299820       0.05357210      -0.10147693       0.04953076      -0.68187991       0.08485537       0.24079489      -1.66979962 F F F
 C              7.49513641       3.64971036       0.17470762       0.01545188       0.03917242       0.02420683       1.63552531       2.36155732       0.16973630      -6.18017919 F F F
 C              9.13374673       2.51738701       0.01609219      -0.01315276       0.01070234      -0.03802140       0.16058168      -0.97188746      -1.72103320      -8.35792262 F F F
 C              5.70395229       8.56617039       7.03449535       0.01538265      -0.00670914       0.00057031      -1.73792536      -0.91448843       0.35482509      -7.44694910 F F F
 C              9.40362061       4.00084971       0.13698838      -0.03525466       0.00675857      -0.03598990      -0.92331255      -0.32759133      -1.36965002      -5.26957881 F F F
 C              2.15708930       5.92109105       6.16752960       0.01558891      -0.03410300      -0.01142815      -0.35916037      -2.30575501      -0.99332974      -6.06891308 F F F
 C              0.48466176       3.30050929       1.51008142      -0.02526664      -0.00148380      -0.02420034       3.37101159      -1.48294461      -1.91077223      -6.58764898 F F F
 C              9.31227384       3.70037299       1.91223040       0.02429117      -0.00676390      -0.02492057      -2.39366080       2.14672496       2.99576221      -6.23533953 F F F
 C              6.09401298       8.76757777       2.94163338      -0.01935531      -0.00413139      -0.03043556       4.83739982       2.97703155      -6.48919845      -8.21305779 F F F
 C              9.57008497       4.78344043       9.06763856      -0.02836194      -0.04573801       0.01418085       1.08031993      -1.23675399       1.77280856      -7.44572867 F F F
 C              4.51197922       8.00973767       6.66621048      -0.02064038       0.00657247       0.02587700       0.38254084       2.53616714      -0.33741522      -6.22525418 F F F
 C              8.03768737       2.55092225       2.08488991      -0.02270590       0.02523780       0.00079102      -0.00282308       0.64723126       1.23426432      -8.64926976 F F F
 C              3.58013700       8.30622208       5.73894748      -0.01969842       0.00965083       0.01736296       0.19461987      -1.45677194       1.64050761      -6.73961575 F F F
 C              6.28463503       3.22869848       9.94510616       0.00055883       0.01855134       0.00857145      -1.66254628      -1.21029720      -0.31188113      -6.43254651 F F F
 C              5.98804515       9.23985703       1.47235514       0.01168187      -0.01941430      -0.02510227      -0.28620095      -1.68586092      -0.54721104      -5.91329602 F F F
 C              7.49293622       0.58086824       1.06373863       0.00381724      -0.00035866       0.03113217      -1.83297032      -0.16130791       1.53329116      -6.21822058 F F F
 C              6.48612165       0.36063757       2.11879491       0.00398870       0.00883076       0.00776746       1.07599261       0.21923019       4.20544531      -7.19214966 F F F
 C              8.15301492       1.26721206       0.22655559       0.02624096       0.00188376       0.03194511       1.37230633       2.44010670      -1.34809917      -7.66422084 F F F
 C              6.79739515       8.61635166       7.73632622       0.01035592       0.00358235      -0.03054656      -0.20160915      -2.21376371       0.92926608      -7.62338753 F F F
 C              7.03918925       3.79768953       1.62902800       0.02470195       0.00408886       0.01323147      -0.33883872      -0.88041977      -0.96104604      -7.33382774 F F F
 C              6.46601289       9.67122396       9.90125592       0.00757113       0.01285444      -0.00460925       0.19975531      -1.50706048      -1.38122137      -8.06777328 F F F
      50
 Properties=species:S:1:pos:R:3:velocities:R:3:forces:R:3:local_energy:R:1:fix_atoms:S:3 Lattice="9.9905032156        0.0000000000    0.0000000000    0.0000000000    9.9905032156    0.0000000000    0.0000000000    0.0000000000    9.9905032156" temperature=5458.72872455 pressure=30289.49711637 time_step=0.5000 time=20.000000 energy=-210.690536 energy_soap=-235.49389454  energy_2b=20.38676040 energy_3b=4.41659848 energy_core_pot=0.00000000 energy_vdw=0.00000000 energy_exp=0.00000000 energy_xps=0.00000000 virial="-7.58889458          -6.94172656     -3.62880186     -6.94172656     -2.28406485      0.26485732     -3.62880186      0.26485732     -2.72113287" stress="0.00761056            0.00696154      0.00363916      0.00696154      0.00229058     -0.00026561      0.00363916     -0.00026561      0.00272890" volume=997.153669 step=40
 H              8.68220688       0.41303068       8.90388145      -0.10120072       0.05245878       0.10225958      -1.97042873       3.17181438       3.37951665      -1.67729797 F F F
 H              1.80945679       4.49502149       8.48098653       0.03526660      -0.06049930       0.01973247      -0.64744054       1.30174208      -0.83217927      -2.87862723 F F F
 H              0.00185991       8.23499341       4.90325904       0.03263176      -0.07125293       0.01603678      -0.61841844       0.38283564       0.86709892      -2.25201475 F F F
 H              4.09798576       1.00196217       6.40942044      -0.02536532      -0.07228454      -0.06178090      -0.42217295      -0.11946188      -0.17535472      -2.98940170 F F F
 H              0.30037311       7.79285846       3.47402922       0.02904812       0.02775576      -0.03404581      -0.54020803       0.17745221       0.41288053      -1.67004318 F F F
 H              4.48554361       2.85399152       4.30109263      -0.03725502      -0.08461981       0.10373125      -0.83594057       0.39690339       0.12535818      -2.15077000 F F F
 H              3.35012361       1.08795697       6.51940527       0.02654329      -0.02330491      -0.00777391       0.06050771       0.03272599      -0.07763988      -3.07144691 F F F
 H              2.47936858       9.22172266       2.08986532       0.00461053      -0.09144349       0.05639626       4.44610416      -0.32416661       4.42489057      -2.84214699 F F F
 H              7.33831696       0.70716517       3.18052413       0.03957204      -0.04341649       0.00627784      -1.59589839      -0.93372255       1.47490635      -1.27683262 F F F
 H              1.95624126       4.49064045       5.53564498       0.00147963       0.06025885       0.12349704       1.35123805      -2.00997588      -1.20808859      -2.19249560 F F F
 H              7.07663391       8.82603483       9.09427799       0.01968905       0.09578461       0.09475831      -0.54453361      -0.94163444       0.71998455      -1.04468829 F F F
 H              9.13775936       1.15532283       5.31706391       0.02577301       0.04168500       0.15048107      -4.32385124      -3.77266540       8.99445880      -2.68919135 F F F
 H              3.09295292       4.00293771       5.74056867       0.11204073      -0.02662438       0.00040184       1.40740902      -0.41968842       0.27645460      -2.21852168 F F F
 H              9.38471392       1.35493632       4.83166367       0.12360274       0.04808744       0.00655569       4.63552764       3.75927312      -8.77254243      -2.68260755 F F F
 H              4.97009410       8.45815007       3.57855456       0.04142957       0.02065115      -0.03052795       1.71440353       0.72918785      -1.79510249      -2.04144285 F F F
 H              7.22024083       6.06950786       2.66970071       0.07608342       0.02742561      -0.04853454       4.06106861       0.49218753      -0.75454531      -1.76120979 F F F
 H              8.96675205       0.04687888       8.50288086      -0.08975544      -0.00618531       0.05772342       4.11708094      -4.35552806      -5.26752009      -2.74878360 F F F
 H              4.79171250       9.31639220       7.61965271       0.12277704      -0.09635410      -0.01513941       0.05525086      -1.15014090      -0.39243286      -0.48868405 F F F
 H              0.97862165       2.55705237       6.81897287       0.02179948      -0.06404313       0.03821210       3.06807385      -0.26003317       2.51611259      -2.53623332 F F F
 H              8.55833562       6.23895014       2.47301138      -0.00644782      -0.02899682       0.01730133      -3.71400647      -0.92308140       0.69885120      -1.90743013 F F F
 H              3.44708532       5.62864791       6.59140268       0.06985343      -0.01167405      -0.09438819      -2.82239058       0.09694450      -1.20697423      -2.68162702 F F F
 H              1.22938919       5.05338980       8.28735264      -0.06294536       0.03782103      -0.03692647       1.28814765      -1.16189640       0.09046159      -2.59204643 F F F
 H              1.80828315       2.46270035       7.56549290      -0.01211653      -0.01880068       0.08863147      -2.84965566       0.40480200      -3.09497734      -2.56572807 F F F
 H              3.66046652       3.62374511       3.56326055      -0.03714911      -0.03143476      -0.15194132      -0.39205363      -0.91305995      -0.18799654      -2.01535833 F F F
 H              3.07598882       3.36250790       2.96092162      -0.09289828      -0.04470771       0.03336351       0.71719293       0.40935333       0.62208352      -3.08996091 F F F
 H              9.50408398       8.48591485       5.63494820      -0.02933892       0.03192457      -0.02758930       0.57048435      -0.35099543      -1.64127465      -3.01500586 F F F
 H              6.70714778       0.41858274       8.85572936      -0.00816446      -0.06895353       0.12392574      -2.39983908       0.84409022       1.30826880      -2.17041948 F F F
 H              2.03376252       9.24550149       1.65983729       0.06437979       0.00816552       0.00020828      -4.57369343       0.17615404      -4.24905199      -2.85931396 F F F
 H              1.17819403       5.02389680       5.69912802      -0.04766082       0.08533149       0.08217615      -2.11072431       2.56503795       1.15541621      -3.12338589 F F F
 H              9.57476592       3.80036994       3.12312979       0.01325272      -0.04912578       0.00550085       0.07163825       0.54401414      -2.04999511      -1.86960982 F F F
 C              7.59620342       4.08922856       0.39066528       0.00033016       0.04769632       0.01613530      -2.66945897       1.62714415      -2.00483868      -5.81601872 F F F
 C              8.99676954       2.52091723       9.58541691      -0.01429581      -0.00790614      -0.04322696       0.36130848      -0.44625020       0.48072992      -9.00016856 F F F
 C              5.70433734       8.47390168       6.99860942      -0.01232914      -0.01067690      -0.00554637      -0.92471546       0.34169644       1.12605835      -7.86883669 F F F
 C              8.94323002       3.84857993       0.04643768      -0.05057893      -0.03058792       0.00838585       2.68084069       0.69714858      -3.94623339      -2.11452769 F F F
 C              2.26636798       5.51378039       5.96701788       0.01190260      -0.04461202      -0.02021621       2.24019430      -0.22592751       1.83603734      -5.38467292 F F F
 C              0.48115715       3.18987456       1.09907033       0.01050488      -0.01479988      -0.05300927      -2.15608332       1.19644269      -0.24056758      -6.65760334 F F F
 C              9.37602206       3.77253293       1.86772262       0.00343130       0.01741639       0.01558043       3.75999807       0.40501167       3.36493803      -7.89358385 F F F
 C              5.92006765       8.78203547       2.52415087      -0.02266497       0.00456991      -0.04202644      -1.49299772       0.68970510       1.75151160      -7.05192041 F F F
 C              9.45012932       4.55980920       8.94168227       0.00033338      -0.00419591      -0.03268370      -0.54305011      -0.93067293       2.12976335      -8.79227653 F F F
 C              4.34687340       8.17834905       6.89867745      -0.01136758       0.02609355       0.01925260       1.06333396       1.73840650      -1.64979762      -6.55584710 F F F
 C              7.80981894       2.75584119       2.16019630      -0.02198623       0.00849046       0.01542485       0.62823358      -4.87794271       2.27211945      -8.97173292 F F F
 C              3.41044829       8.34589057       5.97256227      -0.01313481      -0.00085870       0.02752701       0.97052765      -0.92229338       0.98221790      -6.93086867 F F F
 C              6.33260652       3.40922529       0.05406365       0.01290894       0.02009942       0.01337365       2.14361756       0.98759770       1.26666566      -7.38433538 F F F
 C              6.10926332       9.05743614       1.23099823       0.01246089      -0.01359889      -0.02325712      -0.36180757       0.86626442      -0.78993418      -6.72023057 F F F
 C              7.51392029       0.60609724       1.33266465       0.00499716       0.00769608       0.01625597       1.44285879       1.94502668      -2.53568831      -7.05658199 F F F
 C              6.57370894       0.41249414       2.32016492       0.01323595      -0.00121456       0.02849214       1.23019461      -1.59282550       1.59740666      -7.71489254 F F F
 C              8.40846810       1.32552771       0.53502026       0.02078497       0.00642723       0.03380948      -1.35185600       0.08266033       1.38933394      -8.58550835 F F F