50
Lattice="9.9905032156 0.0 0.0 0.0 9.9905032156 0.0 0.0 0.0 9.9905032156" Properties=species:S:1:pos:R:3:local_energy:R:1:hirshfeld_v:R:1:forces:R:3 energy_soap=-241.62513969 energy_2b=5.94864695 energy_3b=0.71792144 energy_core_pot=0.0 energy_vdw=0.0 energy_exp=0.0 energy_xps=0.0 virial="-27.02291591 -5.22016785 7.77806794 -5.22016785 -23.13414018 5.0720765 7.77806794 5.0720765 -36.00681697" volume=997.153669 config_type=iter_3 energy=-234.958571 stress="0.02710005 0.00523507 -0.00780027 0.00523507 0.02320018 -0.00508655 -0.00780027 -0.00508655 0.0361096" pbc="T T T"
H        0.52578652       3.50584178       6.19824403      -3.36017006       0.67074765       0.66109271       0.58803156      -0.03288266
H        0.98964488       4.14678536       2.22576052      -2.45776041       0.76078804      -1.46258389       2.08553119      -0.28316459
H        7.84032000       6.91676125       9.32588425      -1.30312401       0.89308480      -0.16859931       0.78721614       1.04392262
H        1.04968645       5.17327413       2.63680313      -2.79110786       0.82549110      -0.51009468      -0.38966505       0.41582128
H        2.38569022       9.15506310       4.85095896      -3.54375885       0.67346943      -2.85840503      -1.32056595       3.15461818
H        8.71282818       4.03679611       0.11545859      -2.70746183       0.76924495       2.49478476       0.00374343      -1.11178484
H        6.32174145       3.85689952       1.00427870      -2.48865688       0.87749594       1.23064010      -1.70448478      -0.54591580
H        6.06717851       2.68458784       1.62825352      -1.71836357       0.92577787      -0.16015830       1.22224859      -0.31458435
H        8.03070631       4.93875966       4.76437771      -3.60820813       0.69944366       3.19259710       3.65443208       1.98819061
H        1.64580879       2.78323302       0.37820347      -2.53235347       0.79133690       0.23195411      -0.58009628      -0.20480329
H        9.10106129       6.00518817       1.24061370      -2.75152020       0.78664296      -0.86811095       1.47856820       1.10494271
H        1.09781936       4.03243990       6.12826319      -2.96682945       0.63598441      -0.99451253      -0.39404817       0.10914679
H        4.97118442       9.11936056       1.04383710      -4.16649560       0.74010486      -0.98755203       2.18904416       1.79647787
H        1.23622465       6.42567232       4.99230271      -3.72578739       0.72925968      -4.03946165       0.68228828       0.39433628
H        3.55349646       4.58034879       1.67598048      -2.73078630       0.56300893       1.22334405      -1.06901577       3.31524750
H        9.75723910       2.90242443       0.91537603      -2.37067756       0.77362009       0.23909611       0.36720540      -1.13106339
H        8.67494455       6.68102610       1.80103917      -3.04189547       0.80952936       0.70529596      -0.89538794      -1.56689025
H        2.66277455       2.25638927       4.74500195      -2.78356119       0.81453352      -0.82512650       2.29823616      -3.24677880
H        3.45392622       4.80134353       1.05569812      -3.06550602       0.56604398      -0.16097267       1.34824558      -3.54786689
H        8.16003949       1.56727274       5.74849387      -2.76458149       0.55124827       0.70791399      -0.66175562       0.03059602
H        7.11289542       3.70150032       0.25294109      -2.10098338       0.80321816      -1.25046567       0.67887651       0.81659591
H        2.42061610       2.86911000       3.95192295      -2.51108967       0.78102798       1.13174458      -2.50126445       3.17367292
H        0.69179198       3.61804501       8.83161721      -3.66438725       0.70719960      -0.19137275       0.00422855      -0.45393946
H        1.94890299       3.35107030       1.43292636      -2.49975640       0.67787397       5.06444337      -2.37906644       2.31895376
H        5.58494323       7.85323966       0.27227827      -2.32629059       0.61778088       0.64082076      -1.43735311      -0.78078430
C        0.23723304       1.27834203       7.09001961      -6.51483472       0.91615483       3.73994028       0.10687878       3.71486934
C        0.74471055       8.46127977       6.86899297      -6.43536413       0.92869150       4.66658647      -2.63020321      -0.76904172
C        9.79046566       7.73216522       3.55759939      -5.91558681       0.91891972       1.55653471       0.71224678       4.65524572
C        1.16661343       3.75020444       1.01931498      -6.69195634       0.79235660      -3.27042549       0.38786288      -3.61500324
C        1.42735074       9.61582267       9.36247337      -7.54310145       0.91230811       3.17263023       5.95941678      -1.04967331
C        5.26301258       9.94032508       0.35161970      -6.43609965       0.87983051       3.59846795      -3.31317941      -2.49949620
C        3.00505686       0.35514821       9.47806222      -5.40889789       0.91968192       2.06463527      -3.17705948      -1.29408697
C        0.94891827       0.79766802       8.58129889      -5.96596732       0.90572750      -2.43464530       0.73659581      -1.87885017
C        8.86914104       5.85105748       5.24029067      -5.94724328       0.89117314      -0.26063079      -1.38351234      -2.29277145
C        8.17542161       8.19711261       1.79812365      -6.46935921       0.89234209      -1.44143431       6.76355737      -0.95891146
C        1.27492316       8.75157456       5.64542722      -6.37967588       0.88242697      -0.59181912       1.66408351      -3.21774203
C        9.19240977       0.47245124       6.95282543      -6.54749564       0.87863258      -0.25347346       0.16586345      -4.81530010
C        6.66633444       9.54958899       9.79286829      -8.30621354       0.89155734       3.75627842       2.36702721       3.68867140
C        0.37205386       3.76439146       9.83973770      -6.33008262       0.89236484      -3.74079451       0.10438504       4.44654343
C        7.50917065       0.65681156       9.03073400      -6.61248010       0.89669557       0.35984792      -2.38607451      -3.31935227
C        7.56949727       9.02639718       0.85931094      -6.63403035       0.86647549      -1.03271956      -3.88176190      -1.29717480
C        9.30913793       0.18941702       5.18788662      -6.94867137       0.88134944      -1.16056231      -2.16989599       0.04065860
C        1.77716184       7.66192541       7.99509619      -6.27944063       0.94805152      -0.84161459       2.61759807      -3.09150828
C        8.48661783       9.23385223       2.91070681      -7.17903595       0.87173319      -1.84148319      -5.12554078      -4.29040788
C        2.13017766       8.82059201       8.54482708      -6.96612786       0.88067023      -0.63067823      -2.27047830       2.18274092
C        8.61611328       9.75141436       4.01702341      -6.14669771       0.86419072       0.52931817       3.37153697       4.02409184
C        0.31478051       8.99824351       4.50161803      -7.71784702       0.90302537       0.76684939      -0.80617279       2.75792157
C        8.27130820       0.53403380       7.91331280      -7.47808860       0.86301153      -3.80704514      -0.50599205       4.21613761
C        9.88805527       6.65340308       5.05054988      -6.19987353       0.89769369       1.01575946      -2.89553563      -2.38591772
C        4.64952097       0.18822678       9.19427371      -5.92328671       0.93608743      -6.96583391       1.53316147       0.60629335
50
Lattice="9.9905032156 0.0 0.0 0.0 9.9905032156 0.0 0.0 0.0 9.9905032156" Properties=species:S:1:pos:R:3:local_energy:R:1:hirshfeld_v:R:1:forces:R:3 energy_soap=-241.1453151 energy_2b=8.59127513 energy_3b=-1.29014942 energy_core_pot=0.0 energy_vdw=0.0 energy_exp=0.0 energy_xps=0.0 virial="-7.37083874 -7.40510075 -7.16604154 -7.40510075 -25.83307777 -6.43705954 -7.16604154 -6.43705954 -48.58437995" volume=997.153669 config_type=iter_3 energy=-233.844189 stress="0.00739188 0.00742624 0.0071865 0.00742624 0.02590682 0.00645543 0.0071865 0.00645543 0.04872306" pbc="T T T"
H        2.31244251       2.71460583       6.39329077      -3.16940159       0.63099548      -1.47603944       0.27286610      -0.49575860
H        9.80122908       4.62023063       3.27354833      -2.18153039       0.75184071      -0.43514107       0.47753868      -0.13315112
H        3.51506984       6.12698416       7.21837552      -0.72929401       0.92249528      -0.69575638       0.87036946       0.22356250
H        1.67457535       4.88174027       1.79559086      -2.89759645       0.69946526      -0.69627147      -3.72203275      -2.50174018
H        2.06999383       7.88271375       5.18635525      -4.02692488       0.72264239      -1.76216890       1.29350711      -2.28573590
H        0.69572481       2.71475510       8.90724738      -2.98582740       0.60857226      -0.93797827      -0.45236727      -1.14207236
H        7.18773456       2.83347146       0.36601639      -2.43056523       0.69067726      -1.08407469      -0.87761490      -0.80443584
H        6.82365545       4.43559208       0.73390383      -1.74358589       0.80198516      -0.62974418      -0.44493119      -0.03946829
H        8.57446688       5.02334784       4.86554545      -3.47793000       0.69509982      -3.08545935      -0.78558449      -0.88304909
H        1.85884770       3.24004903       0.34853811      -2.74331194       0.73203303       5.38660072      -4.02138662      -7.30565009
H        7.94327961       6.31120260       1.08232422      -3.31274871       0.71426316       1.35744492      -1.12697058      -0.35068023
H        1.63965124       2.90261625       6.02075928      -3.14566646       0.64134753       1.07541004      -0.45073489       1.08623877
H        5.13143606       1.00041015       0.50023616      -3.91636335       0.71766310       0.39945288      -3.16626598       0.91318269
H        0.75591812       5.58074501       4.93627336      -3.77088210       0.72832596       2.30592047       0.31427782       1.85254778
H        3.78707032       4.00177228       0.79908154      -3.17039610       0.61768695       0.56663166       0.53933406      -0.06151763
H        8.65389464       3.92319184       0.41366975      -3.13959251       0.74334633       0.11328505      -0.58566836       0.03958216
H        8.53822159       5.83905726       0.72820156      -2.68981383       0.68121057      -1.13403879       1.26192560       0.68754180
H        2.75315915       3.30961786       3.02661409      -2.70008061       0.72043685       0.93483171      -1.97804454       3.25987784
H        3.49721693       4.68497045       1.00287476      -2.82045173       0.62129922       0.88419047      -0.25166371      -0.39585617
H        7.66393294       1.05503842       5.72534380      -3.20819627       0.73336146       1.60736948      -1.86882816      -1.54573779
H        7.00185359       2.27372104       9.76782936      -3.55493681       0.71976022       0.43175226       1.11372356       0.79234272
H        3.02285455       2.80555415       3.81460270      -2.88770687       0.72426127      -0.59080003       1.62515526      -3.21788258
H        0.13493366       4.66779822       0.58309661      -2.67398492       0.71808587      -0.37323719      -1.17152128      -0.23799358
H        0.78732923       2.78444177       1.80588326      -2.84686932       0.69181695       1.86440867       1.98418904      -1.04184493
H        8.99192935       1.74133969       0.84270810      -2.28964130       0.75487880       0.84931316       1.41366740      -0.19495018
C        0.41998649       1.37788969       7.68184504      -5.60724706       0.89413720      -2.45816431       0.69302327      -1.07018223
C        1.02401605       8.43532466       6.68342852      -6.36473361       0.89414942       2.28348894      -1.55353378       0.88096455
C        9.66742346       7.91237332       4.29220491      -6.85967153       0.88531767       6.44901153      -2.83211440       2.28481119
C        1.42679433       3.68751788       1.00014187      -6.25646031       0.85429715      -8.54365422       5.25656694      12.12590278
C        2.16583006       0.32707552       9.44712773      -7.78041087       0.87228602      -4.70812178      -4.00378007      -4.34408388
C        5.37432808       9.77601464       0.36259936      -6.20145554       0.90614798       0.61761261       3.93655935      -2.18766231
C        3.43164839       0.66285486       9.52083979      -5.79319731       0.89268414       1.70209436       1.06698616      -1.08550681
C        1.04240865       0.64121266       8.45522581      -6.76944048       0.86933447       4.62836784      -0.54767798       3.69761877
C        8.94488352       5.98793908       4.59036725      -5.56069730       0.84265947      -5.98983995      -2.37816688      -1.66133126
C        7.93917817       8.12867450       1.73459148      -6.04504799       0.91928811       0.33000936       4.23419328      -2.13188900
C        0.99678652       8.45771928       5.16141485      -7.02568447       0.85741178      -2.58016007      -3.60664917       3.97009081
C        8.99216204       0.67498035       6.66164059      -6.75742879       0.88191921      -0.85062711       1.43781926       3.49054100
C        6.94539219       0.06929414       0.31480558      -7.15099880       0.89222290      -2.00183176      -4.79710897      -2.82412076
C        9.67231639       3.53561784       0.67610320      -5.30292440       0.83350464       1.80839582       0.74229829      -0.67182857
C        7.46882513       0.42318656       9.08452498      -6.56839507       0.86915524       3.94344094       2.69894183      -3.28220609
C        7.45278424       8.34936629       0.37247846      -5.50678846       0.95140630       0.41516691       1.52404370       3.26836621
C        8.68757670       0.10248720       5.27679781      -6.73864371       0.85379289      -4.37415909       2.79333898       3.73244408
C        1.77233102       8.02074560       7.85941599      -6.39426147       0.90569085       0.27626104       3.97194003      -0.86417960
C        8.58661634       9.26615433       2.33687025      -6.69160440       0.90747187      -1.46833352      -1.36664953       4.09809896
C        2.50167977       8.72410239       8.89795432      -7.09698466       0.90186452      -1.39895106      -0.88868048      -2.15348410
C        8.70426614       9.63338654       3.78312748      -6.75801376       0.86375630      -1.49207393       0.68291988      -2.41154758
C        9.76551854       9.35634648       4.75297937      -7.31462706       0.87556439       4.83427253      -1.05012471      -0.59344485
C        8.36201399       0.83904875       8.05880501      -6.82741902       0.87340108      -2.72975080      -2.54281813      -1.02985579
C        9.97444619       6.29428776       5.14787259      -5.33721794       0.85020550       6.01305644       5.21637743      -0.15314028
C        4.24809105       9.52593167       9.24431274      -6.62153668       0.92550556       0.41858753       1.04935634       2.69827304
50
Lattice="9.9905032156 0.0 0.0 0.0 9.9905032156 0.0 0.0 0.0 9.9905032156" Properties=species:S:1:pos:R:3:local_energy:R:1:hirshfeld_v:R:1:forces:R:3 energy_soap=-249.47692116 energy_2b=7.13842443 energy_3b=0.5239706 energy_core_pot=0.0 energy_vdw=0.0 energy_exp=0.0 energy_xps=0.0 virial="-32.39973627 -9.17473555 -12.87099146 -9.17473555 -10.80212908 -5.79424323 -12.87099146 -5.79424323 -27.36100593" volume=997.153669 config_type=iter_3 energy=-241.814526 stress="0.03249222 0.00920092 0.01290773 0.00920092 0.01083296 0.00581078 0.01290773 0.00581078 0.02743911" pbc="T T T"
H        2.57481838       1.95509212       6.11174512      -2.74137521       0.65120110       0.35441982      -1.11620065       1.64883609
H        9.00904534       6.10606805       2.04673924      -2.10096579       0.78076124      -0.18065995      -0.73333853       1.71592232
H        8.25926074       5.17853285       5.19057466      -2.65797271       0.74888771       0.71134656       0.10050078      -1.56491228
H        1.29802776       4.66837890       1.12378035      -3.47305419       0.65435543       0.42837391      -1.05173478       0.53245988
H        1.47860598       8.07427346       4.52494245      -4.58694352       0.69167943       0.59433327      -0.14137156      -1.59708334
H        0.26325314       2.28773415       7.75479756      -4.16614793       0.69980019       0.17325058      -2.44837041       1.82517678
H        5.94862559       2.20784101       9.98059208      -2.84791133       0.75791348       2.35853941       1.62419663       2.02542239
H        8.06995648       4.22682923       9.18602579      -1.59066405       0.84916026       0.25003629      -0.17444107       1.00314891
H        7.71809715       5.79703363       4.41666632      -2.83091153       0.75228214       2.10490852       0.77635903      -1.21049250
H        1.59514092       2.64773501       0.38382772      -3.33189300       0.72543800      -1.06266135       3.15903345       3.13327800
H        7.33171902       6.47995454       0.13137507      -3.42702906       0.67653448       0.68816741      -0.19769458      -0.36655838
H        2.75383560       1.50122399       6.79009528      -3.57100804       0.71612922      -0.28144242       1.24131589      -1.94458262
H        4.12033629       2.30574674       9.17991892      -2.73838322       0.68082534      -0.13963590      -2.33592899       0.34341370
H        0.26734884       5.92878582       6.30651718      -3.77207783       0.71105904      -0.20223360       0.14141015      -3.42553331
H        5.33506318       4.13047870       0.37159007      -2.39418196       0.70174538      -1.88329476       0.93177588       1.15697983
H        9.73221544       3.94990344       0.39899660      -3.47078751       0.80366515      -0.58301226       0.28854539      -1.83556322
H        6.76630127       6.00029233       0.26335756      -2.44688316       0.68851866      -0.60705161      -0.31712708      -0.18993892
H        3.18049403       3.01195861       2.95892170      -3.10068189       0.64964605       0.06269708       0.93372363      -2.40472243
H        4.62599289       4.41011456       0.78803385      -3.17598891       0.65626842       1.41017354      -0.07714259      -1.03873576
H        7.41469004       0.11236499       4.84216238      -3.74827670       0.72641277       0.62719326       1.58121763       3.77710143
H        6.41490989       2.84749009       0.54297267      -2.62502795       0.79330706      -1.31721565      -2.50170110      -2.11233329
H        3.05864630       3.31507497       2.12067150      -3.01602238       0.70565030      -0.31038284      -0.75200938       2.71996951
H        8.54914976       3.51523027       2.00414624      -3.62877880       0.76455046      -1.45557133      -0.62025393       2.25074498
H        0.76421580       3.11847092       2.21390324      -3.28456508       0.67560213      -0.06518166       0.02221533       0.74810536
H        5.40326097       6.59248313       9.56887171      -1.52337853       0.86755549      -0.27866290       0.13730846      -0.11238947
C        0.01036286       1.11311448       8.01096560      -6.89528562       0.85665959       3.15488933       0.09780101      -1.16022271
C        1.44404877       8.46662175       6.42459617      -6.86137435       0.85786154       1.98985770       1.43102700       7.10268193
C        9.31123425       7.95300932       5.20457673      -6.45398990       0.90898765       3.35164871       0.34187370      -1.56006755
C        1.29642064       3.58280719       1.40641291      -7.02132456       0.84858689       1.08732180      -2.58499119      -3.34132335
C        2.56416713       0.90599523       9.14849872      -6.15420481       0.87646264      -3.90680595      -0.08964328      -1.67391797
C        5.57358648       9.73029114       9.96031217      -5.64787543       0.86724627      -4.60124944      -1.41489033      -0.13839310
C        3.75746106       0.65088506       9.48305687      -5.99040187       0.87901650       2.42559671       0.82380803       0.97290652
C        1.45894858       0.17306104       8.36640378      -7.86752785       0.86586052      -4.35887281      10.15329248       1.50874912
C        9.03364695       5.78729930       4.04780759      -5.03050859       0.92123515       0.26962953       0.33964865       3.45493286
C        7.82117090       8.54675749       1.46882431      -6.63287194       0.82587458      -0.78579445      -2.07419692      -3.26599354
C        0.91371000       7.82627351       5.38985598      -6.48634970       0.86279809      -2.70377250      -1.15355821      -0.95355867
C        9.13560858       0.90890726       6.87720190      -6.52617586       0.86469846      -4.32651587      -2.19719500      -3.84250513
C        7.08658270       9.66657244       0.13678572      -7.20526595       0.85847482      -5.33031582       6.28272982      -3.06825920
C        9.12748098       3.73777585       1.20519748      -4.45511278       0.80240281       1.17885797       1.14189159      -2.19161659
C        7.74385305       0.23155391       9.02161805      -7.83841418       0.82794731       2.90484171       2.82545414      -4.49316262
C        7.22884311       8.41824559       0.28827547      -6.17017794       0.84755981       0.39134528      -7.07031875       3.10074429
C        8.22763824       0.21506167       5.89202902      -6.45602409       0.89075632       4.43393876      -0.95169605      -3.62919877
C        1.94510548       9.08492878       7.83696660      -7.79746296       0.87969048      -0.45514937      -8.10930464      -5.85897007
C        8.63205901       9.12359355       2.16677075      -7.22541060       0.84424288       2.90340856       3.17977808       7.61655133
C        2.71714155       8.41745362       8.85242676      -5.82606260       0.94254896       3.56301204      -0.22972819       0.71785452
C        8.82867283       9.68443252       3.44519191      -6.80672546       0.87476266       1.53036185      -2.68436855      -1.37483943
C        9.27908826       9.50129876       4.83537909      -7.75271841       0.90632227      -3.80650476      -0.84368754      -0.72742876
C        8.35518986       0.79481730       7.99156766      -6.95596036       0.85100865       0.63038175      -0.56392343       6.51083670
C        0.19808131       6.27358745       5.03865598      -6.38261182       0.89510010      -2.79977700       2.71676804       2.80295062
C        4.12838397       9.15221342       9.80594290      -7.12377822       0.91799256       1.86323280       2.16314193      -1.58646409
50
Lattice="9.9905032156 0.0 0.0 0.0 9.9905032156 0.0 0.0 0.0 9.9905032156" Properties=species:S:1:pos:R:3:local_energy:R:1:hirshfeld_v:R:1:forces:R:3 energy_soap=-242.43000835 energy_2b=6.7732348 energy_3b=0.49190466 energy_core_pot=0.0 energy_vdw=0.0 energy_exp=0.0 energy_xps=0.0 virial="-16.62453407 -3.41643157 -10.88158229 -3.41643157 -22.9175103 -1.26435661 -10.88158229 -1.26435661 -39.62441012" volume=997.153669 config_type=iter_3 energy=-235.164869 stress="0.01667199 0.00342618 0.01091264 0.00342618 0.02298293 0.00126797 0.01091264 0.00126797 0.03973752" pbc="T T T"
H        3.17867351       0.62497931       6.57061927      -2.78436180       0.95203096       0.82307302       5.47451802      -4.05292790
H        7.13836353       4.56524539       2.27474714      -2.08823146       0.77677357       1.33319725      -0.01761145      -0.63570203
H        0.50382355       4.92103278       2.11200948      -2.86238042       0.72565019      -0.57957319      -2.79465450      -0.17921260
H        1.88555667       4.49199182       1.39413123      -2.73527769       0.74699314      -2.33050328      -2.81112692       0.49197477
H        1.51111861       7.26950246       4.48730127      -3.95581084       0.73927382       1.06311446       1.56334246       1.54029850
H        9.21811586       1.92680361       5.71290948      -3.72037906       0.70884580       1.46598802      -0.67506706       3.08491097
H        7.06960567       2.68446973       0.63281326      -2.73211095       0.74399076      -0.25739523      -2.50229978      -1.72240191
H        9.47855152       1.99714640       1.17436685      -2.25145402       0.78303686      -0.44525272      -0.15648036      -0.15593696
H        9.26911762       6.51915730       3.13218157      -3.82015635       0.74072912       0.26009183      -1.89723461       1.22785380
H        0.80004143       2.65234465       1.08117564      -2.80744711       0.82726208      -0.37375622       0.17368744      -1.43188537
H        6.61699124       5.74870605       8.67320581      -3.06582607       0.58750419      -0.11702305      -0.48228551      -0.21183651
H        3.33264129       1.44817053       6.29992696      -2.80184115       0.65743974      -0.47376805      -2.35306068       0.69555417
H        2.29933458       2.08414432       8.62643776      -3.12729582       0.70848119      -2.72126061       8.06023948      -0.67155766
H        0.20522918       5.17766552       5.79864022      -3.09368159       0.64376701       0.05788075       1.38335732       0.04940737
H        4.59558604       4.96738684       1.00516553      -2.79753723       0.63004416       0.64870197      -0.53694934      -1.35870738
H        8.60337202       5.07084453       0.71999420      -3.19196134       0.75640889       0.71568767      -2.51090918       2.41002113
H        7.01889986       6.34847180       8.80583889      -3.44395331       0.61967532       0.21042304       0.44279426       0.14313370
H        3.22479107       3.31483737       1.16050301      -2.70108316       0.74073425       0.80201905      -1.52506520       2.13083290
H        4.54477347       4.35002159       0.43392305      -2.60015490       0.68109447       0.77201010       1.73074881       0.74511189
H        7.52701531       0.31100942       7.14962474      -3.45445742       0.81812674      -1.07900301      -0.89125944      -3.10061414
H        6.95900357       1.89465643       0.14145134      -3.39610246       0.76708207       0.08459398       3.03584298       1.75425191
H        3.62861249       3.03322207       1.87540717      -2.80712577       0.64453671      -1.25579791      -0.11350343      -1.41675181
H        8.66829220       3.42723714       2.43740586      -3.07441635       0.76996013       0.03569288       1.84845808      -1.70792693
H        1.50146196       2.00990783       2.62204040      -2.04630766       0.79046940      -0.31073837       1.94775528      -0.32608037
H        3.12150605       9.98446620       7.16007313      -3.07572747       0.88501257      -0.96260747      -3.38856143       2.92476678
C        9.96810137       0.82245203       8.23059752      -7.19451610       0.86454510       7.60186979       1.62887763      -3.23716743
C        1.78818477       8.33924918       6.69633087      -6.12913179       0.88124835      -4.33414542      -2.40740362      -5.76768840
C        9.18089713       8.28512435       5.66356536      -5.91401469       0.90019946       2.31924576      -2.32076479      -2.43878838
C        0.91158481       3.51617433       1.73539929      -5.32476307       0.85994036       1.85828797       4.51115869       1.30194321
C        2.84611831       1.34959021       8.81041677      -6.65597376       0.82526373       2.11713461      -8.55856859       1.62836793
C        5.44996856       9.42873956       9.63836439      -7.10516866       0.85066114     -10.51883791      -0.82045256       1.11170984
C        3.70653017       0.53920271       9.40636561      -6.63876100       0.87969139       0.27430403      -1.70523170       1.54245600
C        1.35803726       0.65882806       8.35605791      -6.89151782       0.85721323      -1.51280765      -0.72489736       0.02150125
C        9.59593635       5.77727719       4.07009048      -5.77223923       0.89484363      -1.35728160       3.18593748      -3.34324257
C        7.77123623       8.88347290       1.15067800      -6.56581230       0.89098165       1.28067385      -3.09584332       3.23899788
C        0.83099833       7.43688337       5.46318209      -6.85163485       0.86979814       3.83819705       6.76418428       2.51207649
C        9.36371425       1.12329644       6.73871671      -6.57015104       0.87229786      -3.27969521      -0.65012272      -1.77950399
C        6.67671964       9.55827435       9.73350381      -6.22484120       0.87116445       9.03321705       0.40006595      -1.53750518
C        8.81870963       4.12111351       1.50528591      -5.23768405       0.83351723      -0.44356501       0.31498166       0.98991055
C        7.91204427       0.15482677       9.10473299      -6.15419202       0.85531911      -1.98927265       0.83537308      -1.67250450
C        6.91858439       7.92697600       0.21125870      -5.55565656       0.94722930       3.20596413       3.65734600       4.02694552
C        8.08825766       0.22800588       6.03964248      -7.16468885       0.86096024       0.97501448       2.51524391       2.65860668
C        2.51087430       9.05608181       7.54078064      -6.33934131       0.89696360       0.33409092      -2.44356814       1.26355812
C        8.70647835       9.22359639       2.34497695      -6.06594929       0.90371887      -1.58320980      -0.05618586      -0.43224708
C        3.10696825       8.35263655       8.63474022      -5.77466601       0.95761431       3.14104423       2.75798380       4.45390076
C        9.19445487       9.62597590       3.65717633      -6.63475521       0.91080640      -4.59512252      -1.64571374      -3.04130829
C        8.53113892       9.39426136       5.08212256      -7.22467300       0.88746667       2.61017616      -3.09201855      -2.30054930
C        8.62160960       0.78804353       8.02010248      -6.67303585       0.85525773      -2.24756082      -0.49612922       5.08847625
C        9.90073415       6.55138447       5.10873649      -6.01788244       0.86789855      -3.83239666      -4.76463282       2.66911890