      55
 Properties=species:S:1:pos:R:3:velocities:R:3:forces:R:3:local_energy:R:1:fix_atoms:S:3 Lattice="19.5718046752       0.0000000000    0.0000000000    0.0000000000   19.9614250672    0.0000000000    0.0000000000    0.0000000000   21.1848089344" temperature=0.00000000 pressure=-2.11272675 time_step=1.0000 time=172.000000 energy=-202.838784 energy_soap=-56.82995154  energy_2b=-96.25013442 energy_3b=0.00000000 energy_core_pot=0.00000000 energy_vdw=0.00000000 energy_exp=0.00000000 energy_xps=0.00000000 virial="0.03868382           -0.06003515     -0.09207180     -0.06003515      0.05604670      0.00886108     -0.09207180      0.00886108     -0.12747221" stress="-0.00000467           0.00000725      0.00001112      0.00000725     -0.00000677     -0.00000107      0.00001112     -0.00000107      0.00001540" volume=8276.504722 step=172
 Au             9.40666231      12.24737159      11.20494462       0.00000000       0.00000000       0.00000000       0.00149165       0.00035495      -0.00048579      -3.43505030 F F F
 Au             5.36666504       9.16704517      12.49212733       0.00000000       0.00000000       0.00000000      -0.00292640      -0.00030908       0.00149906      -2.78395351 F F F
 Au            10.72899910      14.58886055      11.57973402       0.00000000       0.00000000       0.00000000       0.00305131       0.00198084      -0.00026320      -2.63430834 F F F
 Au            10.43239669       5.06404517       9.61335857       0.00000000       0.00000000       0.00000000       0.00069227       0.00177155       0.00068903      -2.72188834 F F F
 Au            12.40507727       7.35695133       9.26104399       0.00000000       0.00000000       0.00000000       0.00055683      -0.00158974      -0.00081129      -3.23181447 F F F
 Au             9.65135982      13.05759537      13.94294231       0.00000000       0.00000000       0.00000000      -0.00045927       0.00166636      -0.00054542      -2.98814868 F F F
 Au             7.29990671      10.10159790       7.46703719       0.00000000       0.00000000       0.00000000       0.00149221       0.00005932       0.00316627      -3.13480131 F F F
 Au             5.78417254      11.84222447      11.70203594       0.00000000       0.00000000       0.00000000      -0.00602435       0.00110254       0.00054571      -2.97835939 F F F
 Au            12.12591418       5.89539034      11.58776876       0.00000000       0.00000000       0.00000000       0.00457446      -0.00265924      -0.00058717      -2.51668218 F F F
 Au            11.59544380      10.74529361      10.41431933       0.00000000       0.00000000       0.00000000       0.00047657       0.00183992       0.00118833      -3.63678902 F F F
 Au             9.15210472      15.04496007       7.09550937       0.00000000       0.00000000       0.00000000      -0.00023127       0.00012716       0.00026865      -2.52753672 F F F
 Au            12.33005564      12.68784458      13.00516610       0.00000000       0.00000000       0.00000000      -0.00099536      -0.00251720      -0.00133219      -3.00577128 F F F
 Au            14.64565501      10.68793189       6.78727677       0.00000000       0.00000000       0.00000000       0.00014403      -0.00179966       0.00045696      -2.26929458 F F F
 Au            13.35186028       8.49943326      11.63134339       0.00000000       0.00000000       0.00000000       0.00168458      -0.00190237      -0.00007783      -3.10017887 F F F
 Au            11.57536636      11.78686377      15.47690320       0.00000000       0.00000000       0.00000000      -0.00283023      -0.00085764      -0.00077827      -2.43281331 F F F
 Au            11.00653850       8.43520151       5.06623861       0.00000000       0.00000000       0.00000000      -0.00113055       0.00038320       0.00039683      -2.55324718 F F F
 Au            11.08751825       6.45039267       6.99325564       0.00000000       0.00000000       0.00000000      -0.00103877      -0.00010658      -0.00018682      -2.85454241 F F F
 Au             7.68352888       5.41898447      10.21735133       0.00000000       0.00000000       0.00000000       0.00134654      -0.00000566       0.00276343      -2.82893904 F F F
 Au            12.95517324      13.29020556      10.42060527       0.00000000       0.00000000       0.00000000       0.00207679       0.00161706      -0.00022875      -2.72816614 F F F
 Au            11.18859001       9.08283706      15.73324756       0.00000000       0.00000000       0.00000000      -0.00292330      -0.00137332      -0.00294133      -2.53721372 F F F
 Au             6.54747096      14.59043592       7.89125116       0.00000000       0.00000000       0.00000000       0.00049152       0.00026254       0.00107707      -2.43829674 F F F
 Au             7.64714234      14.01730730      12.38655686       0.00000000       0.00000000       0.00000000      -0.00296956      -0.00047564      -0.00095039      -2.83790714 F F F
 Au             6.81850016       7.50864005       8.40817898       0.00000000       0.00000000       0.00000000      -0.00044773      -0.00052781       0.00158050      -3.07589570 F F F
 Au             7.98701124      10.27883485      12.48835409       0.00000000       0.00000000       0.00000000      -0.00480974       0.00386382      -0.00256963      -3.57161988 F F F
 Pd             6.81365513       9.25655488      14.76319905       0.00000000       0.00000000       0.00000000       0.00002476       0.00027569      -0.00096516      -3.80464651 F F F
 Pd             5.85370702      14.25293674      10.44980470       0.00000000       0.00000000       0.00000000      -0.00211664      -0.00000323      -0.00044022      -3.53778505 F F F
 Pd             7.91572208       7.97104214      11.14602967       0.00000000       0.00000000       0.00000000       0.00178951      -0.00146301       0.00188582      -4.77497947 F F F
 Pd            11.77181017       7.53769444      13.66779751       0.00000000       0.00000000       0.00000000      -0.00154964      -0.00278217      -0.00193802      -4.14012681 F F F
 Pd            10.56973207       8.35673465      11.36243269       0.00000000       0.00000000       0.00000000       0.00441757      -0.00131236      -0.00234875      -4.97314087 F F F
 Pd             8.58245161      14.51346433       9.78191993       0.00000000       0.00000000       0.00000000       0.00037584       0.00114340       0.00071783      -4.49373180 F F F
 Pd             8.75930800       8.01060478       6.50712693       0.00000000       0.00000000       0.00000000      -0.00157383      -0.00065366      -0.00048631      -4.29589430 F F F
 Pd            12.58034679      12.01211656       8.06199439       0.00000000       0.00000000       0.00000000       0.00090186       0.00036278       0.00040650      -4.56531008 F F F
 Pd            11.15020719      14.37336493       8.76716914       0.00000000       0.00000000       0.00000000       0.00089955       0.00137431       0.00013909      -4.14001152 F F F
 Pd            13.81698218       9.73553910       9.18266526       0.00000000       0.00000000       0.00000000      -0.00081313      -0.00164389      -0.00079480      -4.29846675 F F F
 Pd            13.11375206      10.04251036      13.89086616       0.00000000       0.00000000       0.00000000      -0.00395888      -0.00005907      -0.00282722      -4.07974829 F F F
 Pd             6.87672176       6.89058818      13.24079927       0.00000000       0.00000000       0.00000000       0.00109767      -0.00022239      -0.00112372      -3.93376054 F F F
 Pd             9.17416336       8.18048954      13.95089541       0.00000000       0.00000000       0.00000000      -0.00131823       0.00179291      -0.00446569      -4.66631201 F F F
 Pd             6.10938588       9.69979386       9.92675250       0.00000000       0.00000000       0.00000000       0.00195821       0.00004495       0.00325105      -4.42389796 F F F
 Pd             9.85444321      12.05860145       8.47975189       0.00000000       0.00000000       0.00000000       0.00044908      -0.00029512       0.00222506      -4.96734735 F F F
 Pd             9.02917643      10.66803100      15.25229653       0.00000000       0.00000000       0.00000000      -0.00192628       0.00128455      -0.00133696      -4.22929467 F F F
 Pd             5.48308902       7.03231146      10.78843735       0.00000000       0.00000000       0.00000000       0.00256969       0.00006422       0.00247112      -3.74561753 F F F
 Pd             9.56397762       7.55125727       9.03507022       0.00000000       0.00000000       0.00000000       0.00004850      -0.00002465      -0.00269341      -4.81284974 F F F
 Pd             6.97708685      12.06628845      14.23086121       0.00000000       0.00000000       0.00000000      -0.00179749       0.00145948       0.00013641      -3.80866795 F F F
 Pd             9.45869504       6.04477376      12.27995654       0.00000000       0.00000000       0.00000000       0.00389635      -0.00041926      -0.00009808      -4.25458626 F F F
 Pd            12.15392571      10.80527361       5.72548474       0.00000000       0.00000000       0.00000000       0.00025742      -0.00020276       0.00058404      -4.11380988 F F F
 Pd             7.16791487      12.17892028       9.30299687       0.00000000       0.00000000       0.00000000       0.00168580      -0.00009550       0.00327008      -4.72792217 F F F
 Pd            10.98670420       9.57897453       7.92496443       0.00000000       0.00000000       0.00000000       0.00243267       0.00057499       0.00102307      -5.12448911 F F F
 Pd            14.09264076      11.09940615      11.56938264       0.00000000       0.00000000       0.00000000       0.00139836      -0.00058545      -0.00151584      -3.81718492 F F F
 Pd            10.65368328      10.42488424      13.07065831       0.00000000       0.00000000       0.00000000      -0.00456519      -0.00086714      -0.00222405      -4.96158511 F F F
 Pd             8.88825126       9.99563818       9.77610542       0.00000000       0.00000000       0.00000000       0.00407187       0.00392817       0.00132328      -4.92799062 F F F
 Pd             7.96457770      12.61154052       6.68427445       0.00000000       0.00000000       0.00000000      -0.00031395      -0.00041148       0.00208805      -4.18173806 F F F
 Pd             9.48631043      10.59814265       5.88554309       0.00000000       0.00000000       0.00000000       0.00009129      -0.00010836       0.00172166      -4.36877366 F F F
 Pd            13.12600671       8.40356442       6.83012058       0.00000000       0.00000000       0.00000000       0.00050810      -0.00204033      -0.00170042      -4.05637466 F F F
 Pd            10.77442447      13.04801465       6.22672824       0.00000000       0.00000000       0.00000000       0.00008536       0.00010856      -0.00012184      -4.09147567 F F F
 Pd             8.56834205       5.46013758       7.59919602       0.00000000       0.00000000       0.00000000      -0.00031841      -0.00012948       0.00196366      -3.69804608 F F F
