      79
 Properties=species:S:1:pos:R:3:velocities:R:3:forces:R:3:local_energy:R:1:fix_atoms:S:3 Lattice="35.8881027227       0.0000000000    0.0000000000    0.0000000000   35.8124235808    0.0000000000    0.0000000000    0.0000000000   35.2451767574" temperature=912.51153778 pressure=134.57629276 time_step=2.0000 time=1000.000000 energy=-274.549929 energy_soap=-86.01269337  energy_2b=-122.89152000 energy_3b=0.00000000 energy_core_pot=0.00000000 energy_vdw=0.00000000 energy_exp=0.00000000 energy_xps=0.00000000 virial="1.89383151            4.31343530     -0.79779003      4.31343530     -2.42820721      3.74366652     -0.79779003      3.74366652     -6.45134228" stress="-0.00004181          -0.00009522      0.00001761     -0.00009522      0.00005360     -0.00008264      0.00001761     -0.00008264      0.00014242" volume=45298.508728 step=500
 Au            20.85985679      16.83354382      16.18185960       0.00111502      -0.00051017       0.00005108       0.92385252      -0.18601254      -1.26614598      -3.32621462 F F F
 Au            17.38201347      23.17094222      16.02609778      -0.00158964      -0.00040346      -0.00131025       2.15747025       0.28206006      -2.01746207      -2.81116494 F F F
 Au            18.84679250      16.99625739      13.76745325       0.00302065       0.00217776       0.00077618      -0.82556271      -0.45116329      -0.01874844      -3.32782587 F F F
 Au            15.48504308      20.72941335      11.82740879      -0.00235401       0.00106812      -0.00231543      -0.51512500      -0.36900472      -0.11743633      -2.46599399 F F F
 Au            20.84623916      14.79591290      22.38231495       0.00226635       0.00155496      -0.00234495      -0.62132998       0.45496148       0.64389745      -2.33628853 F F F
 Au            17.08428785      13.66840474      17.56335589      -0.00090122       0.00036521      -0.00147612      -1.64343433      -0.37176729      -0.13985561      -2.94974902 F F F
 Au            16.21920860      17.05955826      21.28352701      -0.00031213      -0.00122160       0.00079381      -1.24010622       0.22136109       0.55740714      -3.37227797 F F F
 Au            16.20334176      23.96862360      18.03097577      -0.00239433       0.00241746       0.00093342      -1.17951418       0.61857711       1.61664057      -2.37997733 F F F
 Au            13.22460129      20.05399180      21.66605672       0.00238833      -0.00082933      -0.00203827       0.79263861       1.79658765       0.81211368      -2.49703152 F F F
 Au            24.12833445      18.35887513      16.09833540       0.00166664      -0.00077485      -0.00032693      -0.52478109      -1.31955744      -0.36107859      -2.53687809 F F F
 Au            18.92901852      17.30894643      21.40305207      -0.00342743      -0.00181122      -0.00176879       2.32588235       0.33196440      -0.34909978      -3.21345314 F F F
 Au            21.21232665      12.21445674      19.87216481      -0.00118898      -0.00034522       0.00111190       0.46827413       0.07053767      -0.02967336      -2.48846492 F F F
 Au            21.44767194      22.07670800      17.92568910       0.00380774      -0.00075695       0.00344137       0.24342414      -0.66594337       0.45226240      -3.01696367 F F F
 Au            20.26171759      19.84858335      22.46250064      -0.00112669       0.00163775      -0.00348599      -0.43723596      -0.04210562      -0.10885813      -2.75483324 F F F
 Au            13.22316292      15.38813926      19.78052327       0.00046577      -0.00119530       0.00186637       0.60106881       0.08176511      -0.08275195      -2.86932692 F F F
 Au            23.31726055      15.82513581      15.18232161      -0.00143613      -0.00162651      -0.00082099      -0.53424252       0.41876997       0.38248895      -2.33376699 F F F
 Au            23.62181997      19.10705116      19.62341023      -0.00047522      -0.00145461       0.00450113      -0.57947703      -0.13905193      -0.57019159      -2.66660449 F F F
 Au            17.43786283      20.75367707      20.28034133      -0.00235471      -0.00421081      -0.00360430       0.67611259      -0.46505239      -0.90871749      -3.44336869 F F F
 Au            20.97942366      13.82634817      14.69967716      -0.00121438       0.00267440       0.00000928       1.31657788       0.61041435       0.56733242      -2.82595377 F F F
 Au            11.88313049      17.61220923      18.97808003       0.00065449      -0.00208178       0.00029692      -0.34812844       0.44044334       1.08686840      -2.47751269 F F F
 Au            18.62465770      19.82633030      17.70467860      -0.00014213      -0.00052800      -0.00275653       1.79783805       1.26445755      -0.81081975      -3.37820610 F F F
 Au            21.68704124      19.19720627      17.29832315      -0.00175747      -0.00254272       0.00014866      -0.17118875       0.14114542       0.47215773      -3.39873365 F F F
 Au            18.32854665      14.50250124      12.81945282      -0.00035172      -0.00164732      -0.00283476       0.10548036      -0.44546849       0.66718518      -2.60926832 F F F
 Au            17.41569928      18.17465943      19.22348804      -0.00090886       0.00103982       0.00202710       0.01349531      -0.05999622       0.10854472      -3.20105586 F F F
 Au            21.48137912      11.83726316      16.55921032      -0.00003188      -0.00127521       0.00272894       0.98361695      -0.74826657      -1.17331730      -2.13148627 F F F
 Au            22.53905233      21.30007712      20.83602835      -0.00026322      -0.00031001       0.00186708       0.33115164       0.15968988       0.13277083      -2.27586441 F F F
 Au            14.39342325      14.86313874      17.13078293      -0.00006387      -0.00022307      -0.00276030      -0.53687104      -1.27367894      -1.55647258      -2.50270943 F F F
 Au            21.38465224      15.93912328      13.24838665       0.00048357      -0.00014729       0.00170113      -0.26207607       1.12585728      -0.61114568      -2.80346709 F F F
 Au            20.08808904      17.11487131      18.70821811      -0.00016240      -0.00467580      -0.00032540       0.32349184       0.90699737       0.74686967      -3.47024101 F F F
 Au            16.05751339      16.03914499      12.37058244      -0.00357513      -0.00347146       0.00299316       0.30688246       0.11565606       0.32144596      -2.68111433 F F F
 Au            14.51898741      18.24288053      12.45421489       0.00045258      -0.00081059      -0.00066006       0.41349358       0.30896548       0.19967463      -2.58710807 F F F
 Au            17.17698378      20.48086867      15.26601608       0.00151916       0.00296682       0.00205542       1.49797931      -0.41646916      -0.23976377      -3.40562069 F F F
 Au            15.76056265      18.02740823      16.42902548       0.00044294       0.00020174       0.00263774      -0.11846233       0.00766142      -0.46869336      -3.39017041 F F F
 Au            16.59616179      15.28634433      14.99222062      -0.00161845       0.00046532       0.00223794       0.51204284      -0.20149933       0.73521111      -3.13922250 F F F
 Au            15.75535129      21.10479955      22.28197593      -0.00103369       0.00052862      -0.00037603      -0.41281360       0.21223258       0.04883800      -2.89468910 F F F
 Au            15.98113764      20.40375821      17.80863572       0.00188743       0.00047786       0.00105851       0.69730856      -0.07277925       1.70145168      -3.19509548 F F F
 Au            22.97739857      16.42774711      19.00267045       0.00177609       0.00183130      -0.00048183      -0.29868358       0.52592875      -1.05683116      -2.86671224 F F F
 Au            13.61578334      19.80991256      16.68784863       0.00126691       0.00017814      -0.00012691      -1.28386071       0.69492675       0.75396053      -2.88915550 F F F
 Au            22.35811647      21.02059322      15.35144463      -0.00085451      -0.00074388       0.00222761      -0.03175317       0.26305512       0.18998356      -2.87533273 F F F
 Pd            14.67758227      22.09498483      19.67087701      -0.00005331      -0.00010772       0.00102392       0.32238195      -0.67674001      -0.04035313      -4.14112604 F F F
 Pd            18.76530770      22.65272738      18.34778143      -0.00273639       0.00023185       0.00370844      -0.94114292      -0.07072588      -0.70348487      -4.36494533 F F F
 Pd            14.28548615      15.66899866      22.34714199      -0.00393641      -0.00026492      -0.00288525       0.68391536      -1.53084044       0.56905184      -3.47762962 F F F
 Pd            19.47735813      12.39237901      17.80519490      -0.00178144       0.00300928      -0.00000442      -1.15872404       0.06030162       0.20696192      -4.06515421 F F F
 Pd            19.55433277      19.09878394      15.02712816       0.00332708      -0.00047407      -0.00280777       0.64913655       1.11034296       0.09359709      -4.72230084 F F F
 Pd            18.40865550      22.04394171      22.43075749       0.00383132      -0.00102925      -0.00271232      -0.11938108      -0.47168476       0.07277931      -3.70642446 F F F
 Pd            24.19448370      20.62621832      17.19438090      -0.00129509      -0.00163479      -0.00588157      -0.34432094       0.60295103       1.21345482      -3.30722298 F F F
 Pd            14.26410566      16.66197734      14.66434972       0.00214089      -0.00386196       0.00069613       0.50790954      -0.33477494      -0.79392027      -3.86916010 F F F
 Pd            15.03338063      22.20812039      16.35807228      -0.00295354       0.00088036      -0.00314560      -1.60618086       0.30005146      -0.83783763      -3.96993441 F F F
 Pd            20.63594330      19.82498603      19.86781270       0.00359704       0.00145024       0.00360265      -0.67368403      -1.09053434      -1.29790872      -4.49398856 F F F
 Pd            18.00874459      20.75287596      12.33803345      -0.00492583       0.00322912       0.00316206       1.46880520      -0.56076787       0.74204538      -4.30154907 F F F
 Pd            20.07207094      22.35606000      20.38892587      -0.00407765       0.00228689       0.00562974       0.19216205       0.00624510       0.80216306      -3.98211098 F F F
 Pd            16.45884181      22.55879485      13.58432730       0.00217331      -0.00242966       0.00221372      -1.84362087      -0.43129336       0.10390514      -3.84408382 F F F
 Pd            18.18641251      17.29918754      16.65952717       0.00781529       0.00485459      -0.00012139       0.35509932      -0.39642606      -0.49798477      -4.58102640 F F F
 Pd            19.68553211      21.75321069      15.90000988      -0.00306838      -0.00253659      -0.00387541       0.13024090      -0.27922840      -0.49715794      -4.55433251 F F F
 Pd            15.66230721      16.22917338      18.62821613      -0.00076115      -0.00107395      -0.00157828       0.54132588       0.64327343       0.65343647      -4.50295008 F F F
 Pd            15.65910390      14.15582342      20.50823620       0.00221177       0.00510540      -0.00095434       0.24533305       0.43735071      -0.45259346      -4.10241368 F F F
 Pd            14.78305704      20.27336975      14.46290586       0.00042077       0.00348287       0.00080410      -0.53962878      -0.26624444      -1.35181634      -4.12192001 F F F
 Pd            18.53707031      12.89684630      20.15231949       0.00006558      -0.00301448      -0.00107676      -0.72208757       0.07489327       0.52761300      -4.00617219 F F F
 Pd            20.12280272      18.73794159      12.09714557       0.00125021       0.00326207      -0.00006531      -0.21067279       0.15732644       0.64442892      -4.14514703 F F F
 Pd            22.30923392      18.67020949      14.03418021      -0.00174677      -0.00079067       0.00158210      -0.86541651      -0.63008146       0.11716132      -4.14941228 F F F
 Pd            21.88721022      14.16059799      17.61905462      -0.00088453      -0.00067268      -0.00214335       0.19852789       1.11048820       0.26153186      -4.30993016 F F F
 Pd            17.31132280      18.31910006      11.43533019      -0.00173779      -0.00018234      -0.00060206       0.28597437      -0.04138491       0.66173930      -3.93351194 F F F
 Pd            20.71424089      21.13343551      13.35089404      -0.00083769      -0.00382547       0.00296429      -0.86851408      -0.71609038      -0.21675155      -4.03211695 F F F
 Pd            21.76593331      17.57981648      21.15110298       0.00323188       0.00201145      -0.00157405      -0.59977179      -0.08297688      -0.09009738      -4.14251836 F F F
 Pd            22.92313235      14.59205584      20.79397383       0.00322026       0.00227810       0.00167911       0.03379740      -0.52164406      -0.00542571      -3.47304486 F F F
 Pd            18.84189838      12.67850091      15.08858711       0.00076729      -0.00125845      -0.00200112      -1.42191299       0.10085335       0.65483576      -3.60630425 F F F
 Pd            19.24794103      14.85938353      16.93797966       0.00430379       0.00313239      -0.00077331       0.75436508       0.17095330      -0.51062600      -4.69195161 F F F
 Pd            18.82297166      23.00226409      13.49158315      -0.00108927       0.00210365       0.00038714       1.26997690      -0.00207946       0.53115099      -3.57103515 F F F
 Pd            14.64762269      18.61684554      19.41948174       0.00556166       0.00350687       0.00295092      -0.25154871      -0.13637621       0.41184980      -4.85130033 F F F
 Pd            13.13341371      17.60951182      21.57818945      -0.00123367       0.00516819       0.00258039      -0.58218251      -0.22120609      -1.29741254      -3.79919973 F F F
 Pd            17.01313330      23.40674372      20.40038251       0.00157988       0.00102842      -0.00452146       0.44587686      -0.46981605       0.81127438      -3.85918755 F F F
 Pd            13.22631251      17.28447318      16.87591583       0.00385942      -0.00039833      -0.00361874      -0.21675395      -0.88418122       0.29456335      -3.93568864 F F F
 Pd            17.82431278      15.03667652      21.91512309      -0.00409698      -0.00252243      -0.00039835       0.26765479      -1.55122989       1.02419621      -3.90062794 F F F
 Pd            15.00901110      18.63997536      23.24269026       0.00203494       0.00034188       0.00357126      -0.23995313      -0.34609846      -0.27295463      -3.76118252 F F F
 Pd            18.01670821      15.35556580      19.40009759      -0.00151988      -0.00229375       0.00154349      -0.36803447       0.81463902      -0.60285497      -4.67384294 F F F
 Pd            17.58012412      19.02863467      22.76568353      -0.00112286       0.00115732      -0.00675191       0.11206438       1.17790477      -0.06161313      -4.00383215 F F F
 Pd            12.60405873      20.22653146      19.25358500       0.00061608       0.00074653       0.00132013      -0.07456108       0.36289645      -1.14760594      -3.70876205 F F F
 Pd            19.45580598      16.26334522      11.13204945      -0.00100753       0.00004557      -0.00027192      -0.15274428       0.48364628       0.56067162      -3.48920025 F F F
 Pd            20.44177834      14.74445418      19.86344837      -0.00029329       0.00309415      -0.00134830       0.41285447       0.27210882      -0.59005426      -4.60878389 F F F
