      79
 Properties=species:S:1:pos:R:3:velocities:R:3:forces:R:3:local_energy:R:1:fix_atoms:S:3 Lattice="35.7628792317       0.0000000000    0.0000000000    0.0000000000   36.6921520258    0.0000000000    0.0000000000    0.0000000000   36.3954050195" temperature=0.00000000 pressure=-0.68618528 time_step=1.0000 time=612.000000 energy=-287.497089 energy_soap=-78.78116362  energy_2b=-144.35704788 energy_3b=0.00000000 energy_core_pot=0.00000000 energy_vdw=0.00000000 energy_exp=0.00000000 energy_xps=0.00000000 virial="-0.15500167           0.01237826     -0.00893202      0.01237826      0.11627318      0.06253358     -0.00893202      0.06253358     -0.02263421" stress="0.00000325           -0.00000026      0.00000019     -0.00000026     -0.00000243     -0.00000131      0.00000019     -0.00000131      0.00000047" volume=47758.669249 step=612
 Au            17.64704207      18.50061429      25.27374454       0.00000000       0.00000000       0.00000000      -0.00027658       0.00002283      -0.00136625      -2.46639662 F F F
 Au            15.29691411      19.54068403      15.99228696       0.00000000       0.00000000       0.00000000       0.00084707      -0.00014629      -0.00057421      -3.46533959 F F F
 Au            14.69248739      23.02239378      19.02994830       0.00000000       0.00000000       0.00000000      -0.00154725      -0.00352022       0.00009871      -2.69921879 F F F
 Au            18.98611395      20.19064595      18.88330517       0.00000000       0.00000000       0.00000000      -0.00061789       0.00008483       0.00093209      -3.42556647 F F F
 Au            18.20936992      16.82365938      19.99175836       0.00000000       0.00000000       0.00000000      -0.00027309      -0.00406475       0.00036998      -3.62603305 F F F
 Au            18.62335486      20.28680425      13.62955195       0.00000000       0.00000000       0.00000000      -0.00038816       0.00075456       0.00020148      -2.94258629 F F F
 Au            17.50003481      15.92157950      24.42779207       0.00000000       0.00000000       0.00000000      -0.00033342      -0.00051389      -0.00107721      -2.52943784 F F F
 Au            19.20806208      14.49968853      12.93832624       0.00000000       0.00000000       0.00000000      -0.00201293       0.00170137      -0.00004557      -2.55762159 F F F
 Au            12.71385756      20.82394378      18.35928308       0.00000000       0.00000000       0.00000000       0.00603437       0.00104701       0.00087957      -3.00662574 F F F
 Au            17.84978608      20.55131295      16.38741558       0.00000000       0.00000000       0.00000000       0.00082222      -0.00020001       0.00039664      -3.40214270 F F F
 Au            12.54132114      16.79965785      16.12072229       0.00000000       0.00000000       0.00000000       0.00088965       0.00086448       0.00381597      -2.93387180 F F F
 Au            11.35531724      18.29954698      18.13173737       0.00000000       0.00000000       0.00000000       0.00070210       0.00402591       0.00074316      -2.51804017 F F F
 Au            20.12990010      22.40433952      20.21528208       0.00000000       0.00000000       0.00000000      -0.00158571       0.00064270       0.00122719      -3.04264309 F F F
 Au            15.64322782      20.49923707      18.75237509       0.00000000       0.00000000       0.00000000       0.00985394       0.00101115      -0.00321045      -3.53414381 F F F
 Au            15.63826439      15.82762027      18.97733324       0.00000000       0.00000000       0.00000000      -0.00199869       0.00215700       0.00046648      -3.56711489 F F F
 Au            16.09603479      19.47928753      12.96945938       0.00000000       0.00000000       0.00000000       0.00158039      -0.00433253      -0.00076793      -2.88271195 F F F
 Au            13.74123545      20.76856053      13.84816683       0.00000000       0.00000000       0.00000000       0.00190233      -0.00264687      -0.00280120      -2.45667392 F F F
 Au            15.11342081      12.85920278      18.74555401       0.00000000       0.00000000       0.00000000       0.00048226      -0.00198348       0.00004628      -2.55912652 F F F
 Au            19.61135014      18.35800473      16.83173129       0.00000000       0.00000000       0.00000000       0.00146572       0.00126015      -0.00024424      -3.44271496 F F F
 Au            19.79433208      18.95647238      21.21338816       0.00000000       0.00000000       0.00000000      -0.00052464      -0.00433076      -0.00122841      -3.47425356 F F F
 Au            14.09294836      22.08627385      16.34592532       0.00000000       0.00000000       0.00000000       0.00002139       0.00015318      -0.00374734      -2.89465518 F F F
 Au            13.13979818      21.66990969      20.91302150       0.00000000       0.00000000       0.00000000      -0.00126393       0.00031858       0.00290617      -2.50668708 F F F
 Au            17.45904659      18.01507281      15.02381887       0.00000000       0.00000000       0.00000000       0.00027556      -0.00040738       0.00162247      -3.50157053 F F F
 Au            18.58699412      13.34948723      15.44980325       0.00000000       0.00000000       0.00000000       0.00021774      -0.00046866      -0.00071999      -2.96767845 F F F
 Au            16.56772955      20.56461037      23.77546969       0.00000000       0.00000000       0.00000000      -0.00124259       0.00222490       0.00201280      -2.91663156 F F F
 Au            23.15344323      17.91927035      20.85696017       0.00000000       0.00000000       0.00000000      -0.00141729       0.00060790       0.00105564      -2.68596256 F F F
 Au            14.21844243      15.23835565      14.37677409       0.00000000       0.00000000       0.00000000      -0.00109187      -0.00188778       0.00271678      -2.67305410 F F F
 Au            18.32751999      22.36174031      22.35962881       0.00000000       0.00000000       0.00000000      -0.00104072       0.00515892       0.00249791      -2.83918157 F F F
 Au            23.82049117      19.66840154      18.69737674       0.00000000       0.00000000       0.00000000      -0.00099463       0.00058050       0.00113859      -2.48799586 F F F
 Au            22.31744825      16.62083076      15.49219000       0.00000000       0.00000000       0.00000000      -0.00074263       0.00127293      -0.00046219      -3.19373512 F F F
 Au            20.47298044      13.25904639      17.44133030       0.00000000       0.00000000       0.00000000       0.00061337      -0.00070352      -0.00115747      -2.83089332 F F F
 Au            17.95661036      15.55669219      17.41041293       0.00000000       0.00000000       0.00000000      -0.00165111      -0.00386786       0.00038239      -3.55310715 F F F
 Au            23.39647532      16.98785774      18.08368581       0.00000000       0.00000000       0.00000000      -0.00085822       0.00045437      -0.00026471      -2.85703043 F F F
 Au            15.85663220      13.67727463      16.19444983       0.00000000       0.00000000       0.00000000       0.00058212      -0.00151399       0.00081281      -3.06952307 F F F
 Au            17.23220592      20.19649451      21.01221985       0.00000000       0.00000000       0.00000000       0.00266826       0.00339027       0.00379908      -3.41062008 F F F
 Au            20.56517854      21.04046716      15.55614325       0.00000000       0.00000000       0.00000000       0.00011052       0.00120845       0.00003171      -3.09097392 F F F
 Au            21.01257009      21.78335212      22.78359193       0.00000000       0.00000000       0.00000000      -0.00131416       0.00152281       0.00090458      -2.45893757 F F F
 Au            14.08542075      14.39206227      20.81091128       0.00000000       0.00000000       0.00000000      -0.00081535      -0.00003218      -0.00189278      -2.66311698 F F F
 Au            17.03498725      18.23842162      17.95142464       0.00000000       0.00000000       0.00000000       0.00268313      -0.00286840      -0.00069492      -3.35679949 F F F
 Au            20.73870062      15.99422397      17.99454992       0.00000000       0.00000000       0.00000000      -0.00183468      -0.00009518      -0.00018541      -3.48669397 F F F
 Pd            17.79346758      12.90985062      18.07212976       0.00000000       0.00000000       0.00000000       0.00123794      -0.00414973      -0.00029824      -4.06716350 F F F
 Pd            20.85244710      16.42157239      20.91596251       0.00000000       0.00000000       0.00000000       0.00086054      -0.00282436      -0.00096455      -4.39567080 F F F
 Pd            17.42353276      22.60709499      19.61550283       0.00000000       0.00000000       0.00000000      -0.00035481       0.00344591       0.00172736      -4.43669166 F F F
 Pd            20.65299947      18.56305511      14.28873205       0.00000000       0.00000000       0.00000000      -0.00037635       0.00100284      -0.00043991      -4.37401401 F F F
 Pd            19.90353834      17.21994720      23.50589081       0.00000000       0.00000000       0.00000000      -0.00071303      -0.00044874      -0.00090365      -4.19104798 F F F
 Pd            17.04479135      15.31393209      14.37780842       0.00000000       0.00000000       0.00000000      -0.00086419       0.00043721       0.00190724      -4.50937235 F F F
 Pd            15.59088240      18.10242878      20.42678627       0.00000000       0.00000000       0.00000000       0.00279469       0.00375671      -0.00019073      -4.94741753 F F F
 Pd            16.61799183      22.88328010      17.03372357       0.00000000       0.00000000       0.00000000      -0.00086167      -0.00116939       0.00035841      -4.26517927 F F F
 Pd            16.94651096      13.91689184      20.46665913       0.00000000       0.00000000       0.00000000       0.00052013       0.00086513      -0.00283579      -4.29084200 F F F
 Pd            18.69254270      15.17932640      22.13191448       0.00000000       0.00000000       0.00000000       0.00091108      -0.00267098       0.00001669      -4.28021249 F F F
 Pd            21.83141886      19.07356040      22.99408678       0.00000000       0.00000000       0.00000000      -0.00213085       0.00133421       0.00063313      -3.86101582 F F F
 Pd            12.78110800      16.34309488      19.45363090       0.00000000       0.00000000       0.00000000       0.00010548       0.00183293      -0.00250731      -4.29336099 F F F
 Pd            15.88004371      16.83433627      12.65244356       0.00000000       0.00000000       0.00000000      -0.00249191      -0.00400491      -0.00075456      -3.79202955 F F F
 Pd            13.65695293      14.74753246      17.41599625       0.00000000       0.00000000       0.00000000       0.00029373      -0.00227423      -0.00002522      -4.14380271 F F F
 Pd            21.54882637      21.18390752      18.10653601       0.00000000       0.00000000       0.00000000      -0.00103140       0.00029431       0.00058780      -4.34644334 F F F
 Pd            13.64474212      16.97764397      21.95555345       0.00000000       0.00000000       0.00000000       0.00177192      -0.00004680      -0.00246211      -4.14351803 F F F
 Pd            21.23269025      18.50527190      18.96399090       0.00000000       0.00000000       0.00000000       0.00018115      -0.00022373      -0.00083326      -4.73859377 F F F
 Pd            12.82850643      18.96474215      20.36351109       0.00000000       0.00000000       0.00000000       0.00012600       0.00105096       0.00116444      -4.35361466 F F F
 Pd            15.34238749      17.78772158      23.88160526       0.00000000       0.00000000       0.00000000      -0.00028996      -0.00105514      -0.00070544      -4.08692689 F F F
 Pd            18.58632687      22.81568468      14.98830533       0.00000000       0.00000000       0.00000000      -0.00024906       0.00094592       0.00111482      -3.66876633 F F F
 Pd            19.53757997      16.13312947      15.24060276       0.00000000       0.00000000       0.00000000      -0.00060466       0.00031981       0.00088182      -4.89982400 F F F
 Pd            19.25916538      19.97216635      23.69026669       0.00000000       0.00000000       0.00000000      -0.00256341       0.00041488      -0.00385814      -4.31592702 F F F
 Pd            21.23107892      16.25813849      13.04431100       0.00000000       0.00000000       0.00000000      -0.00202226       0.00126896      -0.00031364      -3.74899552 F F F
 Pd            14.13853157      18.19019719      18.06033574       0.00000000       0.00000000       0.00000000       0.00165059       0.00415810       0.00133720      -4.92854426 F F F
 Pd            19.48329442      14.33007735      19.73729923       0.00000000       0.00000000       0.00000000       0.00163969      -0.00345520      -0.00006095      -4.23572382 F F F
 Pd            18.64764984      17.28397181      12.75757808       0.00000000       0.00000000       0.00000000      -0.00248514       0.00167478       0.00016976      -4.21618467 F F F
 Pd            16.19203224      21.77951026      14.48776705       0.00000000       0.00000000       0.00000000       0.00131129      -0.00202978      -0.00196422      -4.18046806 F F F
 Pd            15.48089875      16.60405788      16.29108710       0.00000000       0.00000000       0.00000000      -0.00129544       0.00033262       0.00094208      -4.88585763 F F F
 Pd            17.55602150      17.97344435      22.46683701       0.00000000       0.00000000       0.00000000      -0.00064493       0.00007913      -0.00102440      -4.88770771 F F F
 Pd            12.53661444      19.56638497      15.97368764       0.00000000       0.00000000       0.00000000       0.00149886       0.00137019      -0.00006348      -4.15449190 F F F
 Pd            22.10351666      20.50357398      20.67550029       0.00000000       0.00000000       0.00000000      -0.00283732       0.00001208       0.00064013      -4.29980520 F F F
 Pd            16.02545006      15.80335036      22.08300833       0.00000000       0.00000000       0.00000000       0.00063804      -0.00069325      -0.00200595      -4.60370653 F F F
 Pd            13.98696775      18.00246993      14.12921260       0.00000000       0.00000000       0.00000000       0.00047605      -0.00190248       0.00113108      -4.33663764 F F F
 Pd            21.22676004      14.11781972      14.89395356       0.00000000       0.00000000       0.00000000      -0.00053772       0.00098589      -0.00110397      -4.06596130 F F F
 Pd            15.63772770      22.27877465      21.69623459       0.00000000       0.00000000       0.00000000      -0.00108822       0.00127734       0.00110147      -4.07769056 F F F
 Pd            22.86882838      14.48936444      17.07137877       0.00000000       0.00000000       0.00000000      -0.00059915       0.00114505      -0.00091733      -3.52271390 F F F
 Pd            19.30337439      22.64440127      17.59284678       0.00000000       0.00000000       0.00000000      -0.00112635       0.00039268       0.00124249      -4.24080213 F F F
 Pd            22.30187426      19.13693826      16.46164158       0.00000000       0.00000000       0.00000000       0.00062675       0.00134054      -0.00017160      -4.29717121 F F F
 Pd            14.50819107      19.74002497      22.25493730       0.00000000       0.00000000       0.00000000       0.00059730       0.00032946       0.00083033      -4.43608117 F F F
