      25
 Properties=species:S:1:pos:R:3:velocities:R:3:forces:R:3:local_energy:R:1:fix_atoms:S:3 Lattice="18.2029650923       0.0000000000    0.0000000000    0.0000000000   17.4881963753    0.0000000000    0.0000000000    0.0000000000   17.7218525895" temperature=0.00000000 pressure=2.31103346 time_step=1.0000 time=99.000000 energy=-83.436226 energy_soap=-26.08578198  energy_2b=-37.42351581 energy_3b=0.00000000 energy_core_pot=0.00000000 energy_vdw=0.00000000 energy_exp=0.00000000 energy_xps=0.00000000 virial="0.01395108           -0.00205402     -0.02669199     -0.00205402      0.00038359      0.02004679     -0.02669199      0.02004679      0.01007790" stress="-0.00000247           0.00000036      0.00000473      0.00000036     -0.00000007     -0.00000355      0.00000473     -0.00000355     -0.00000179" volume=5641.521887 step=99
 Au             5.06274647      10.02938104      10.68449016       0.00000000       0.00000000       0.00000000       0.00018629      -0.00003052       0.00031534      -2.18828736 F F F
 Au             9.65911717       5.39952686       8.07460717       0.00000000       0.00000000       0.00000000       0.00101594       0.00172242      -0.00009363      -2.85774395 F F F
 Au             9.00259889      10.97227937       8.76488796       0.00000000       0.00000000       0.00000000       0.00096342       0.00076513       0.00122265      -3.09822090 F F F
 Au             8.59441397       6.38214662      12.55265903       0.00000000       0.00000000       0.00000000      -0.00062805       0.00027317      -0.00043800      -2.46829575 F F F
 Au            12.04462671       8.73744864       6.22489987       0.00000000       0.00000000       0.00000000       0.00021496      -0.00011868      -0.00116084      -2.49012898 F F F
 Au            12.05949953       7.10125019       8.48372437       0.00000000       0.00000000       0.00000000       0.00013595      -0.00194674      -0.00230915      -2.81969496 F F F
 Au            10.49035157      10.76469383      11.20688324       0.00000000       0.00000000       0.00000000       0.00094424      -0.00140859       0.00164647      -2.56867120 F F F
 Au            10.07334177      10.59781168       6.25363569       0.00000000       0.00000000       0.00000000       0.00107329       0.00096799       0.00022462      -2.43489993 F F F
 Au            12.26186813       8.59633663      10.78433727       0.00000000       0.00000000       0.00000000      -0.00012818      -0.00247976      -0.00251967      -2.53393296 F F F
 Au            10.61624276       6.01850827      10.59655975       0.00000000       0.00000000       0.00000000       0.00091827       0.00285548      -0.00053743      -2.79239513 F F F
 Au             7.46731673       9.67368554       6.62547322       0.00000000       0.00000000       0.00000000      -0.00081570       0.00040696       0.00048530      -2.76881294 F F F
 Au             6.63579387       8.08105960      11.78302904       0.00000000       0.00000000       0.00000000      -0.00118112      -0.00081435      -0.00010383      -2.76964207 F F F
 Au             8.75606453       5.36955351       5.42377604       0.00000000       0.00000000       0.00000000      -0.00015047      -0.00058309       0.00037439      -2.21326763 F F F
 Pd             6.32935076      11.24651227       8.61597814       0.00000000       0.00000000       0.00000000       0.00024780       0.00116142       0.00074900      -3.51540405 F F F
 Pd             9.59209747       8.23614207       7.96378863       0.00000000       0.00000000       0.00000000       0.00135572      -0.00071164       0.00095383      -4.99324552 F F F
 Pd             6.95711185       8.70487055       9.12087431       0.00000000       0.00000000       0.00000000      -0.00152242      -0.00144209      -0.00047301      -4.59966554 F F F
 Pd            11.53769575      10.00686563       8.62415074       0.00000000       0.00000000       0.00000000       0.00099002       0.00032705      -0.00088604      -4.05621988 F F F
 Pd             9.35018909       8.43393919      10.58879846       0.00000000       0.00000000       0.00000000      -0.00061723      -0.00025168       0.00277435      -4.94706043 F F F
 Pd            10.95871681       7.59536153      12.84752996       0.00000000       0.00000000       0.00000000      -0.00111454       0.00395298      -0.00032462      -3.56162318 F F F
 Pd             7.84803556       6.28935857       9.89169738       0.00000000       0.00000000       0.00000000       0.00046814      -0.00119236      -0.00038718      -4.14560002 F F F
 Pd             8.86274086       9.25530599      13.07064678       0.00000000       0.00000000       0.00000000      -0.00261108       0.00115933       0.00121417      -3.73694153 F F F
 Pd            11.28253385       6.17616272       6.02031595       0.00000000       0.00000000       0.00000000       0.00061732      -0.00137499      -0.00207776      -3.63141028 F F F
 Pd             9.36736398       8.04908795       5.34180576       0.00000000       0.00000000       0.00000000       0.00003410      -0.00088509       0.00042769      -4.00784988 F F F
 Pd             7.68372036      10.64912780      11.06441464       0.00000000       0.00000000       0.00000000      -0.00096130      -0.00002122       0.00059203      -4.20569049 F F F
 Pd             7.42803035       6.90928672       7.19765209       0.00000000       0.00000000       0.00000000       0.00056464      -0.00033113       0.00033130      -4.03152123 F F F
