      25
 Properties=species:S:1:pos:R:3:velocities:R:3:forces:R:3:local_energy:R:1:fix_atoms:S:3 Lattice="18.2029650923       0.0000000000    0.0000000000    0.0000000000   17.4881963753    0.0000000000    0.0000000000    0.0000000000   17.7218525895" temperature=216.30262653 pressure=125.68527262 time_step=2.0000 time=1000.000000 energy=-82.565594 energy_soap=-26.69908635  energy_2b=-35.93957961 energy_3b=0.00000000 energy_core_pot=0.00000000 energy_vdw=0.00000000 energy_exp=0.00000000 energy_xps=0.00000000 virial="0.81387502           -2.29744497     -0.56027229     -2.29744497      0.33360703     -0.70036068     -0.56027229     -0.70036068     -1.16185264" stress="-0.00014427           0.00040724      0.00009931      0.00040724     -0.00005913      0.00012414      0.00009931      0.00012414      0.00020595" volume=5641.521887 step=500
 Au             5.15291987      10.02797466      10.92332607      -0.00089754      -0.00012726      -0.00068503      -0.68212479       0.29584192      -0.14094709      -2.14581214 F F F
 Au             9.69316872       5.60028381       8.18329493      -0.00066537      -0.00078061      -0.00047580       0.34261685      -0.08587417      -0.01856951      -2.97390850 F F F
 Au             9.07681015      11.02777583       8.60724824      -0.00046378      -0.00028590       0.00057063      -0.49829923       0.09803909       0.41151324      -3.06806921 F F F
 Au             8.53394965       6.54356259      12.69926936      -0.00048327      -0.00100369      -0.00046075       0.03238404      -0.33703235      -0.34635188      -2.50562966 F F F
 Au            11.46946875       8.21205155       6.07477457      -0.00061764      -0.00015880       0.00145958       0.58152267      -0.26581519      -0.26675616      -2.71118476 F F F
 Au            12.22225109       7.11757307       8.76757099      -0.00031408       0.00131946      -0.00186886      -0.27497547       0.22804594      -0.30161113      -2.78590684 F F F
 Au            10.42475175      11.04509216      10.99395527       0.00005713       0.00047267       0.00097859       0.02087880      -0.08820263      -0.04138497      -2.47776987 F F F
 Au            10.20637196      10.59466422       6.21470291       0.00112380      -0.00018366       0.00021695       0.09476549       0.32604406      -0.37931737      -2.39876729 F F F
 Au            11.95451415       8.80223091      11.05607992      -0.00014172       0.00100932      -0.00113247      -0.02514833      -0.63363108       0.35374647      -2.68836885 F F F
 Au            10.61732935       6.07015391      10.71150842       0.00138260       0.00083781      -0.00022666      -0.03320646      -0.37592927       0.45466916      -2.77930965 F F F
 Au             7.33844481       9.95731000       6.66270761      -0.00049941      -0.00228659      -0.00020154       0.00044464      -0.19141535       0.05260547      -2.75940297 F F F
 Au             6.51324204       7.91956368      11.66143919       0.00068598       0.00052437       0.00014434       0.37615015      -0.27214182       0.16975494      -2.68839609 F F F
 Au             9.33554640       6.00367725       5.51998332       0.00054950       0.00025153       0.00069631       0.18709983       0.15577176      -0.20407188      -2.47059896 F F F
 Pd             6.26685397      11.25358772       8.80209713       0.00008810       0.00135294       0.00089793       0.15735992       0.20561376      -0.20945641      -3.53507289 F F F
 Pd             9.41531209       8.33271849       7.66075453      -0.00067238       0.00004857       0.00017956      -0.77103712      -0.29078936       0.12759289      -4.82558028 F F F
 Pd             6.85462284       8.68257294       9.07595005       0.00243143       0.00004465       0.00217729       0.26166295      -0.39660952      -0.32789235      -4.57298342 F F F
 Pd            11.55094349       9.80473296       8.58687112       0.00204709       0.00115916       0.00252864      -0.20364695      -0.00611850      -0.16982840      -4.07381473 F F F
 Pd             9.33035411       8.34395266      10.27219783       0.00070631      -0.00078568      -0.00065373      -0.23818603       0.56724816      -0.12278153      -4.91681086 F F F
 Pd            11.06534299       7.14041536      13.17693066      -0.00289775      -0.00021856      -0.00324204       0.31298043       0.13926910      -0.32013864      -3.34115390 F F F
 Pd             7.78369585       6.14903040       9.92208688      -0.00105219      -0.00076331       0.00011138      -0.13090527       0.42876257       0.15399049      -4.05648541 F F F
 Pd             9.34913003       9.13010380      12.73287931       0.00041484       0.00007362      -0.00050947       0.00907481       0.36257849       0.02263469      -3.87612639 F F F
 Pd            11.86212130       5.62407323       6.50618124      -0.00155754      -0.00234649      -0.00063756      -0.03399573       0.04303759       0.16004266      -3.26964932 F F F
 Pd             8.83747704       8.59836735       4.87623963       0.00122631       0.00062901       0.00116193       0.13771073      -0.21118498       0.45757333      -3.58933727 F F F
 Pd             7.74646649      10.55406761      10.96758712       0.00006077       0.00210225      -0.00097439       0.39095041      -0.13191555       0.18390125      -4.24823111 F F F
 Pd             7.32047991       6.74016659       7.15097935      -0.00030815      -0.00059055       0.00064965      -0.01407635       0.43640734       0.30108275      -3.80722359 F F F
