      79
 Properties=species:S:1:pos:R:3:velocities:R:3:forces:R:3:local_energy:R:1:fix_atoms:S:3 Lattice="35.8881027227       0.0000000000    0.0000000000    0.0000000000   35.8124235808    0.0000000000    0.0000000000    0.0000000000   35.2451767574" temperature=0.00000000 pressure=-0.05673525 time_step=1.0000 time=91.000000 energy=-289.040518 energy_soap=-81.64247176  energy_2b=-141.75233025 energy_3b=0.00000000 energy_core_pot=0.00000000 energy_vdw=0.00000000 energy_exp=0.00000000 energy_xps=0.00000000 virial="-0.00308122          -0.00168945     -0.01258885     -0.00168945     -0.02663588     -0.05500285     -0.01258885     -0.05500285      0.02490485" stress="0.00000007            0.00000004      0.00000028      0.00000004      0.00000059      0.00000121      0.00000028      0.00000121     -0.00000055" volume=45298.508728 step=91
 Au            21.01699995      17.25480222      16.14723669       0.00000000       0.00000000       0.00000000       0.00044169      -0.00073398      -0.00039225      -3.43284178 F F F
 Au            16.20024002      23.78200852      15.80265815       0.00000000       0.00000000       0.00000000      -0.00015106      -0.00072366      -0.00031333      -2.52554443 F F F
 Au            19.04850687      16.55777793      14.29550270       0.00000000       0.00000000       0.00000000      -0.00008258       0.00073144      -0.00193579      -3.55760787 F F F
 Au            15.86823109      20.04910773      12.00694966       0.00000000       0.00000000       0.00000000       0.00079211      -0.00069347      -0.00080257      -2.48304575 F F F
 Au            19.88921530      14.32950266      21.44688980       0.00000000       0.00000000       0.00000000       0.00118765      -0.00239674       0.00105537      -2.59799860 F F F
 Au            16.47500045      12.80840931      17.27225313       0.00000000       0.00000000       0.00000000      -0.00040640       0.00074600       0.00118203      -2.84136327 F F F
 Au            16.55941499      17.11434049      21.75838354       0.00000000       0.00000000       0.00000000       0.00014736      -0.00073414      -0.00106580      -3.29383439 F F F
 Au            15.39997656      23.25013603      18.37281464       0.00000000       0.00000000       0.00000000      -0.00019885      -0.00146251      -0.00036916      -2.98689919 F F F
 Au            12.91973380      20.30476288      21.13115439       0.00000000       0.00000000       0.00000000       0.00019388       0.00022533       0.00221500      -2.54114283 F F F
 Au            23.78522517      17.15507839      15.84991261       0.00000000       0.00000000       0.00000000      -0.00003784       0.00024296       0.00100191      -2.75474833 F F F
 Au            19.54531469      17.07664736      21.55109170       0.00000000       0.00000000       0.00000000       0.00040594      -0.00148072      -0.00090290      -3.27589533 F F F
 Au            20.51619821      11.37576915      18.93345550       0.00000000       0.00000000       0.00000000       0.00027944       0.00183007       0.00126529      -2.19505888 F F F
 Au            22.64189330      21.91881125      18.31856869       0.00000000       0.00000000       0.00000000      -0.00036198      -0.00016932       0.00016704      -2.79177635 F F F
 Au            20.68583404      19.53378795      22.83594708       0.00000000       0.00000000       0.00000000      -0.00037618       0.00004751       0.00029650      -2.48563724 F F F
 Au            12.89880273      15.48470136      19.59477508       0.00000000       0.00000000       0.00000000       0.00295610      -0.00499285       0.00128707      -2.66459462 F F F
 Au            22.81213106      14.67969326      15.03166182       0.00000000       0.00000000       0.00000000      -0.00217069       0.00129476       0.00051487      -2.53666557 F F F
 Au            24.06882952      19.97123548      19.72097531       0.00000000       0.00000000       0.00000000       0.00012075       0.00078542       0.00083709      -2.40748472 F F F
 Au            17.23756070      20.74612914      19.97594519       0.00000000       0.00000000       0.00000000      -0.00051837       0.00101640       0.00011988      -3.57400231 F F F
 Au            20.39766114      13.51054933      14.56428204       0.00000000       0.00000000       0.00000000      -0.00087964      -0.00142084      -0.00048010      -2.90541844 F F F
 Au            12.25789919      18.59833303      19.10951916       0.00000000       0.00000000       0.00000000      -0.00159609       0.00344907       0.00071867      -2.77281632 F F F
 Au            18.63978277      20.20738452      17.66678933       0.00000000       0.00000000       0.00000000       0.00047897      -0.00010544      -0.00093682      -3.49228731 F F F
 Au            21.32413643      19.48917318      17.82197611       0.00000000       0.00000000       0.00000000      -0.00004335      -0.00010855      -0.00166679      -3.59793791 F F F
 Au            18.81645189      14.31060966      12.50505905       0.00000000       0.00000000       0.00000000      -0.00141431       0.00137579       0.00110345      -2.37719386 F F F
 Au            17.53392226      18.07848795      19.33527252       0.00000000       0.00000000       0.00000000      -0.00002112      -0.00052186      -0.00090000      -3.52356459 F F F
 Au            21.79932362      12.76782922      16.81763200       0.00000000       0.00000000       0.00000000      -0.00088181       0.00098391       0.00062251      -2.71202444 F F F
 Au            21.90795637      21.19097350      20.91650073       0.00000000       0.00000000       0.00000000      -0.00035596       0.00021083       0.00032562      -2.90569826 F F F
 Au            14.09536246      14.33227241      17.30293309       0.00000000       0.00000000       0.00000000       0.00009118      -0.00043703      -0.00102782      -2.78425241 F F F
 Au            21.96510945      16.82958079      13.54683941       0.00000000       0.00000000       0.00000000       0.00115971       0.00066829      -0.00074753      -2.94777599 F F F
 Au            20.14052025      16.99785042      18.75234625       0.00000000       0.00000000       0.00000000       0.00002842      -0.00007549      -0.00101604      -3.62228586 F F F
 Au            16.55906554      15.55319497      13.46610765       0.00000000       0.00000000       0.00000000       0.00173354      -0.00240505       0.00230289      -2.98957819 F F F
 Au            15.04203480      17.72778250      13.19567282       0.00000000       0.00000000       0.00000000       0.00223534       0.00559852       0.00328654      -2.80696103 F F F
 Au            17.02068194      19.35326705      14.73886303       0.00000000       0.00000000       0.00000000      -0.00010040      -0.00076719      -0.00193837      -3.57176978 F F F
 Au            15.37491288      18.07881439      16.53920855       0.00000000       0.00000000       0.00000000      -0.00054926       0.00074496      -0.00058126      -3.52549821 F F F
 Au            16.56930598      15.51327633      16.56072423       0.00000000       0.00000000       0.00000000      -0.00049262       0.00037302      -0.00131880      -3.51467227 F F F
 Au            16.84364234      21.89220687      22.69661455       0.00000000       0.00000000       0.00000000      -0.00008666      -0.00163559       0.00006370      -2.54455883 F F F
 Au            16.06262055      20.80332564      17.00216353       0.00000000       0.00000000       0.00000000       0.00030441       0.00021546      -0.00307540      -3.58944361 F F F
 Au            23.39787294      17.53655104      18.64643167       0.00000000       0.00000000       0.00000000      -0.00042019       0.00063372       0.00093437      -3.11727865 F F F
 Au            12.95619852      19.57534405      16.65566398       0.00000000       0.00000000       0.00000000      -0.00024372       0.00030979       0.00068118      -2.97620221 F F F
 Au            22.97255333      21.84250820      15.54302652       0.00000000       0.00000000       0.00000000      -0.00008327      -0.00019089       0.00035756      -2.52069308 F F F
 Pd            14.95801559      22.09503997      20.73794608       0.00000000       0.00000000       0.00000000       0.00028806      -0.00040874       0.00009231      -4.18062894 F F F
 Pd            18.01853613      22.93644790      17.67047743       0.00000000       0.00000000       0.00000000      -0.00027228      -0.00020119      -0.00027577      -4.38355135 F F F
 Pd            14.66509770      15.16190393      21.64685672       0.00000000       0.00000000       0.00000000       0.00093005      -0.00041203       0.00309170      -3.75558005 F F F
 Pd            19.07777628      12.39906309      16.90121823       0.00000000       0.00000000       0.00000000       0.00025354      -0.00060275       0.00123472      -4.31360004 F F F
 Pd            19.69025476      19.49410721      15.27609285       0.00000000       0.00000000       0.00000000      -0.00001319      -0.00062167      -0.00012415      -4.91786194 F F F
 Pd            19.36020272      21.75751221      21.80707900       0.00000000       0.00000000       0.00000000      -0.00041591      -0.00054396      -0.00041108      -4.21052317 F F F
 Pd            23.88821150      19.67349092      16.96581044       0.00000000       0.00000000       0.00000000       0.00045388       0.00040947       0.00056346      -4.01851123 F F F
 Pd            14.33621564      15.92002041      15.05546955       0.00000000       0.00000000       0.00000000      -0.00256123       0.00073612       0.00214894      -3.92238489 F F F
 Pd            13.97578585      22.14298492      16.04785451       0.00000000       0.00000000       0.00000000      -0.00154341       0.00172704       0.00237842      -3.95607125 F F F
 Pd            19.75621820      19.52168334      20.12854983       0.00000000       0.00000000       0.00000000       0.00133429      -0.00055768      -0.00042556      -4.88305569 F F F
 Pd            18.41478649      20.76599234      12.80504367       0.00000000       0.00000000       0.00000000       0.00060025      -0.00012371      -0.00093126      -4.23398274 F F F
 Pd            19.96661547      22.19321155      19.25235499       0.00000000       0.00000000       0.00000000      -0.00039335      -0.00004726      -0.00023108      -4.50180222 F F F
 Pd            16.01055533      21.98802899      13.84899391       0.00000000       0.00000000       0.00000000       0.00089426       0.00013438      -0.00166870      -4.11188000 F F F
 Pd            18.20735690      17.66702675      16.70119174       0.00000000       0.00000000       0.00000000      -0.00038099       0.00003583      -0.00023350      -4.78247513 F F F
 Pd            20.48287742      22.01720357      16.61681962       0.00000000       0.00000000       0.00000000      -0.00049329      -0.00003401      -0.00027085      -4.52860125 F F F
 Pd            15.33496767      16.52461652      18.93177643       0.00000000       0.00000000       0.00000000       0.00064629       0.00058019      -0.00134206      -4.98927636 F F F
 Pd            15.58104535      13.87349627      19.56139382       0.00000000       0.00000000       0.00000000      -0.00098064       0.00099685       0.00065870      -4.29712369 F F F
 Pd            14.34831080      19.98998103      14.45381016       0.00000000       0.00000000       0.00000000      -0.00003501       0.00254273      -0.00057918      -4.15569463 F F F
 Pd            18.13831022      12.74998286      19.55199163       0.00000000       0.00000000       0.00000000      -0.00040616       0.00049069       0.00034647      -4.25350107 F F F
 Pd            20.41859143      18.99147382      12.77303994       0.00000000       0.00000000       0.00000000       0.00066537      -0.00039149      -0.00051629      -4.32023824 F F F
 Pd            22.36310840      19.31822068      14.72433077       0.00000000       0.00000000       0.00000000       0.00016677       0.00005257       0.00095456      -4.47471656 F F F
 Pd            22.38053693      15.33274169      17.62423617       0.00000000       0.00000000       0.00000000       0.00073016       0.00028524       0.00129524      -4.36459612 F F F
 Pd            17.77971409      18.06968808      12.42492942       0.00000000       0.00000000       0.00000000       0.00102386      -0.00038068      -0.00366378      -4.32624200 F F F
 Pd            20.77444645      21.48370584      13.92019064       0.00000000       0.00000000       0.00000000       0.00051820      -0.00030166       0.00035204      -4.04700445 F F F
 Pd            22.08482044      18.37247634      20.84708925       0.00000000       0.00000000       0.00000000       0.00049936       0.00036755       0.00169319      -4.28954570 F F F
 Pd            21.95494698      15.75993978      20.33878653       0.00000000       0.00000000       0.00000000      -0.00062861       0.00043612       0.00106212      -3.99635857 F F F
 Pd            17.69698756      13.58112978      14.93052056       0.00000000       0.00000000       0.00000000      -0.00083147      -0.00091615      -0.00091302      -4.15774314 F F F
 Pd            19.34486275      15.09337318      16.64786618       0.00000000       0.00000000       0.00000000      -0.00059861      -0.00016501      -0.00118158      -4.90234456 F F F
 Pd            18.26420122      21.91131408      15.21724068       0.00000000       0.00000000       0.00000000      -0.00035859      -0.00170721       0.00020111      -4.62859227 F F F
 Pd            15.01595368      19.28206932      19.13512770       0.00000000       0.00000000       0.00000000      -0.00023393       0.00069524      -0.00170845      -4.93772793 F F F
 Pd            13.89868653      17.63809686      21.06101338       0.00000000       0.00000000       0.00000000      -0.00002401      -0.00122814      -0.00248578      -4.31861672 F F F
 Pd            17.51759129      23.34352770      20.32113086       0.00000000       0.00000000       0.00000000      -0.00059906      -0.00060444      -0.00025309      -3.94718170 F F F
 Pd            13.01401807      16.85496408      17.20930368       0.00000000       0.00000000       0.00000000       0.00063895       0.00068010       0.00369087      -4.13175071 F F F
 Pd            17.26502591      14.53771366      21.53588539       0.00000000       0.00000000       0.00000000       0.00109893      -0.00020450      -0.00032233      -4.03010195 F F F
 Pd            15.44427670      19.64181017      21.90014880       0.00000000       0.00000000       0.00000000       0.00018741      -0.00120947      -0.00158988      -4.34856507 F F F
 Pd            17.90419956      15.37170506      19.05779185       0.00000000       0.00000000       0.00000000      -0.00047116       0.00048941      -0.00082471      -4.99612979 F F F
 Pd            18.05191286      19.33159704      22.31141951       0.00000000       0.00000000       0.00000000       0.00018652      -0.00131696      -0.00114898      -4.36340340 F F F
 Pd            13.40559331      21.36945447      18.62956477       0.00000000       0.00000000       0.00000000      -0.00161736       0.00002677       0.00160893      -4.19667743 F F F
 Pd            19.97984699      16.60724775      11.71031112       0.00000000       0.00000000       0.00000000       0.00167433      -0.00069881      -0.00111866      -3.55384114 F F F
 Pd            20.39968560      14.06954300      18.86118767       0.00000000       0.00000000       0.00000000      -0.00101636       0.00156330      -0.00002081      -4.56898225 F F F
