      79
 Properties=species:S:1:pos:R:3:velocities:R:3:forces:R:3:local_energy:R:1:fix_atoms:S:3 Lattice="35.7628792317       0.0000000000    0.0000000000    0.0000000000   36.6921520258    0.0000000000    0.0000000000    0.0000000000   36.3954050195" temperature=311.77019111 pressure=-89.26046123 time_step=2.0000 time=1000.000000 energy=-279.981054 energy_soap=-82.71622685  energy_2b=-132.90594906 energy_3b=0.00000000 energy_core_pot=0.00000000 energy_vdw=0.00000000 energy_exp=0.00000000 energy_xps=0.00000000 virial="-4.29306481           3.54878497      3.55442176      3.54878497     -3.96060626      3.42473148      3.55442176      3.42473148     -6.01522815" stress="0.00008989           -0.00007431     -0.00007442     -0.00007431      0.00008293     -0.00007171     -0.00007442     -0.00007171      0.00012595" volume=47758.669249 step=500
 Au            17.42891665      19.98844513      24.91010582       0.00014986       0.00089315       0.00257928       1.23246241      -0.30927993       0.99664667      -2.44892592 F F F
 Au            15.37489013      19.58249829      16.80213966       0.00046897       0.00011454      -0.00085417       0.33944864       0.28269920      -0.75694184      -3.38882528 F F F
 Au            15.68346026      23.86653734      19.00958455       0.00054271      -0.00010261       0.00002334      -0.06160794       0.22950264       0.29742609      -2.53894603 F F F
 Au            20.03801237      20.60603847      19.09214490      -0.00103456      -0.00081928       0.00083811      -0.03882443      -0.65493503       0.26037412      -3.43976131 F F F
 Au            18.59426861      14.74664234      20.40506469       0.00043127      -0.00037369      -0.00074157      -0.03645288       0.05853528       0.28634675      -3.28698732 F F F
 Au            18.56178892      20.40181759      13.69870988      -0.00098551      -0.00109284      -0.00037092       0.55169952      -0.00524474       0.19295983      -3.03611105 F F F
 Au            16.84861561      15.72567458      24.82101455      -0.00079623       0.00048623      -0.00098959      -0.14950952       0.11937759      -0.37045806      -2.27244287 F F F
 Au            19.27460537      14.75280402      12.52175554       0.00016084       0.00164169       0.00081610      -0.15668320       0.45985688       0.38956873      -2.46657487 F F F
 Au            12.85269111      20.05457272      18.06823270      -0.00138455       0.00075774       0.00034780       0.36894218       0.11696023      -0.02075883      -3.04295257 F F F
 Au            17.95278878      21.06808549      16.64293690       0.00153168       0.00216631      -0.00120511       0.21797388      -0.03482702      -0.48379947      -3.46272148 F F F
 Au            12.13034973      16.03559858      15.56414261       0.00058338      -0.00092665       0.00277655       0.47678149       0.21544538       0.23980505      -2.51519882 F F F
 Au            12.14471633      17.20870736      18.07875166       0.00015715       0.00188570       0.00186964       0.42301364      -0.09711828       0.27211426      -3.07178407 F F F
 Au            20.54702457      23.27552767      19.58248644       0.00003965       0.00054025      -0.00073268       0.11315133       0.50652292       0.40856027      -2.44844370 F F F
 Au            15.61932020      21.13999309      19.25669856       0.00010986       0.00208829       0.00035027      -0.21379236      -0.66423099       0.20136564      -3.43167099 F F F
 Au            15.78430426      15.66335913      18.92955499      -0.00176275      -0.00082799       0.00080921       0.10981610      -0.99144308      -0.16337769      -3.61623711 F F F
 Au            16.21055102      19.18753029      13.83630083       0.00088561       0.00191144      -0.00045755      -0.04797211       0.09734955      -0.23514267      -3.18438232 F F F
 Au            13.80716720      20.76020545      14.81427054      -0.00202341      -0.00090521      -0.00019199       0.03444260      -0.53896013       0.09303303      -2.62621412 F F F
 Au            14.97291066      12.44825504      18.04968302       0.00035585       0.00150011      -0.00076238       0.26110206       0.06682688       0.20130933      -2.38985631 F F F
 Au            19.47702771      18.76086560      16.48949478       0.00160951       0.00002890       0.00047488       0.94696236       0.62979941       0.21154083      -3.32948702 F F F
 Au            19.41339229      18.11870317      20.80995996      -0.00224623      -0.00074604      -0.00004327      -0.55249011      -0.96001040      -0.40252042      -3.44050994 F F F
 Au            14.71952008      22.31928949      16.91968178      -0.00209612      -0.00130349      -0.00124130      -0.21805071       0.00212948      -0.34390152      -2.86768460 F F F
 Au            12.55626963      21.31572576      20.37857352      -0.00021863       0.00053159      -0.00035174       0.08239396       0.16017839       0.27543353      -2.38221253 F F F
 Au            17.18206443      17.59536933      15.93147804       0.00292639      -0.00020751       0.00025243      -1.01688851      -0.51621272       0.09181904      -3.39455644 F F F
 Au            18.74000009      13.75880432      15.49076887      -0.00026313      -0.00113428      -0.00305386       0.73594397       0.22873929      -0.20299220      -2.92579596 F F F
 Au            16.03027671      21.56994545      23.43955014       0.00070554      -0.00057842       0.00047021      -0.46926956       0.83035300      -0.52656557      -2.73958180 F F F
 Au            22.91390805      17.47267083      20.59672261       0.00157550      -0.00056592       0.00066571       0.40662740       0.07742468       0.62877931      -2.52979314 F F F
 Au            14.34071271      15.20995620      14.14157520       0.00076174      -0.00074058       0.00092842       0.46681910       0.23173300       0.21912702      -2.66198740 F F F
 Au            17.35293403      23.10074620      21.53046983      -0.00024833      -0.00026180       0.00062948      -0.14449280      -0.07980098      -0.27682556      -2.67361637 F F F
 Au            23.03011997      19.77659921      19.06692783      -0.00053660      -0.00093282      -0.00183022       0.20289325       0.32567855       0.82128465      -2.70718204 F F F
 Au            22.46238634      16.84349462      15.17787141      -0.00002037       0.00113065      -0.00086504      -0.07767079      -0.11596591      -0.08158168      -3.09378846 F F F
 Au            20.90133338      13.12836282      17.95288919       0.00038514      -0.00050666      -0.00020230      -0.75186912       0.12658869       0.33649416      -2.66307545 F F F
 Au            18.41924659      16.63344428      18.38945693       0.00077619       0.00010749      -0.00047849       0.09915007      -0.40213601      -0.34359322      -3.42870177 F F F
 Au            23.23206214      16.72462895      18.00059271       0.00110399       0.00085841      -0.00170286       0.31242033      -0.48981570      -0.55136408      -2.82569412 F F F
 Au            15.93577100      14.17435547      16.20200201      -0.00043868       0.00129495       0.00095307      -0.45188380       0.42040769      -0.14458521      -3.15902097 F F F
 Au            17.55620246      20.23191205      21.43881515      -0.00179922       0.00008881      -0.00079837      -0.17418837      -0.18195681      -0.34202536      -3.52088125 F F F
 Au            20.68984575      21.13344870      15.46845561       0.00284754       0.00228289       0.00056784      -0.15059578       0.01635637      -0.08097777      -3.11331277 F F F
 Au            19.86388409      21.84034314      21.79185513      -0.00058651      -0.00156823      -0.00009386      -0.14837732      -0.34017705      -0.08878146      -2.75385645 F F F
 Au            13.83870934      13.37558063      20.42308421       0.00108850      -0.00035702       0.00033871       0.05180389       0.51416873      -0.12767371      -2.41403453 F F F
 Au            17.68687156      19.21615941      18.68577152       0.00161458       0.00114794       0.00033747      -0.61643666       0.29564933       0.23278005      -3.37107194 F F F
 Au            20.70464352      15.72819516      17.10732208      -0.00011650      -0.00184155       0.00016469      -0.27003153      -0.40260636       0.54633788      -3.37515209 F F F
 Pd            17.89483670      13.82904875      17.98007260      -0.00101435      -0.00195171       0.00203769       0.01072910       0.07998859       0.08235730      -4.31456087 F F F
 Pd            21.02167900      15.76247924      20.10547817      -0.00209009      -0.00132907       0.00293632      -0.54835797      -0.33898718      -0.20493796      -4.20094813 F F F
 Pd            18.03533364      22.43568173      18.96434564      -0.00015718      -0.00129115       0.00119600      -0.09239742       0.01086393       0.60124323      -4.51204382 F F F
 Pd            20.84371755      18.85991431      14.07792001      -0.00011677      -0.00002455       0.00033002       0.07716935      -0.02686433       0.23912460      -4.20110994 F F F
 Pd            19.02119528      17.43471551      24.98555814      -0.00260517      -0.00183641       0.00026643      -0.11527665       0.26217050      -0.53001977      -3.74237849 F F F
 Pd            17.18500945      15.44091290      14.15620068      -0.00087982       0.00014911      -0.00083292      -0.35242280       0.04939601      -0.07142182      -4.30285896 F F F
 Pd            16.88379301      17.37489968      20.67508358       0.00039145      -0.00134914      -0.00002141      -0.18757473      -0.20512542       0.35591227      -4.80861494 F F F
 Pd            17.08247544      23.62632313      16.68749603       0.00170481       0.00075978      -0.00201405       0.25175579       0.22188171      -0.36785296      -4.04252978 F F F
 Pd            16.48551743      13.11295534      20.23972301       0.00070819      -0.00142004       0.00024814      -0.06490126       0.08720565      -0.03068050      -4.06131700 F F F
 Pd            18.49284974      15.98405288      22.67761354      -0.00094047       0.00102718      -0.00043820       0.38646659       0.38028982       0.06290454      -4.40936140 F F F
 Pd            20.92012679      17.09577911      22.88535442      -0.00108941      -0.00143266      -0.00376662       0.15892858      -0.01361829      -0.41035741      -3.97115709 F F F
 Pd            13.45166959      16.08311318      20.33622411       0.00118917      -0.00030601      -0.00159852      -0.04951922      -0.16201149      -0.56711684      -4.26605552 F F F
 Pd            15.99692698      16.85105748      12.42179466       0.00134191      -0.00098342       0.00033543      -0.76812697       0.18259166       0.19210296      -3.60015461 F F F
 Pd            13.39313930      14.62424945      17.81820238      -0.00004785      -0.00018694       0.00275599       0.13642730       0.63752548       0.05130693      -4.15969835 F F F
 Pd            21.90368495      21.82177618      17.72897917       0.00071163       0.00205242       0.00027698       1.00005220      -0.19584088      -0.27789538      -3.79630666 F F F
 Pd            14.60581935      17.46382676      22.16615593      -0.00204920      -0.00022383       0.00173103      -0.13036636      -0.19437782       0.00999091      -4.35031695 F F F
 Pd            20.97776921      18.03709203      18.60254100      -0.00124851       0.00010118      -0.00030218      -0.46855591       0.32285868       0.05108734      -4.65134397 F F F
 Pd            12.51114963      18.62606684      20.45544523      -0.00154653       0.00134526       0.00161620       0.70246148      -0.35845133      -0.08801705      -3.99727241 F F F
 Pd            14.92329514      19.19575932      24.20860765      -0.00239555       0.00012453       0.00088299      -0.85255247       0.26198415       0.19769101      -3.58856104 F F F
 Pd            18.72822264      23.01732312      14.55232931       0.00017647       0.00113854       0.00000149       0.09397687      -0.21705002       0.34908467      -3.67313013 F F F
 Pd            19.48376474      16.58649790      14.93774134       0.00237856      -0.00201707      -0.00008888       0.36129640      -0.58908414      -0.45977413      -4.69749194 F F F
 Pd            19.55504211      19.40183158      23.15987997       0.00169422       0.00307197       0.00214295      -0.50408939       0.39556991       0.98059706      -4.28780608 F F F
 Pd            21.16250291      16.71693154      12.66840546       0.00247781      -0.00031873       0.00278641      -0.20816363      -0.29309973       0.18584356      -3.72578309 F F F
 Pd            14.94141117      18.28165781      19.05048722      -0.00175133      -0.00007280      -0.00113900      -0.53231933       0.24803155       1.13579892      -4.83111331 F F F
 Pd            19.02985577      12.20801848      19.77117965      -0.00179571       0.00241031      -0.00124638       0.26918311       0.04242386      -0.18527762      -3.31352982 F F F
 Pd            18.43796224      17.73841960      12.84139009      -0.00309931      -0.00193660       0.00214859       0.41293481      -0.03555511       0.09116219      -4.31761432 F F F
 Pd            16.33308906      21.81448895      14.60643948      -0.00167230      -0.00073242       0.00038927      -0.35951862       0.08925408       0.26024427      -4.11151343 F F F
 Pd            14.63964772      16.93810141      16.74783623       0.00150911       0.00099385       0.00052039      -0.19377086      -0.60648950      -0.48675509      -4.75977515 F F F
 Pd            16.94292113      18.03395885      23.29314743       0.00216880       0.00086486      -0.00175980       0.49798833      -0.68003264      -0.74182150      -4.65668810 F F F
 Pd            12.09319721      18.87206766      15.88109303      -0.00133670       0.00080172      -0.00024985       0.19668671      -0.35799626      -0.32092027      -3.70299892 F F F
 Pd            21.44823915      19.55958156      21.40057441      -0.00288496      -0.00062332      -0.00267323       0.90707927       0.83846005      -0.19918337      -4.14123651 F F F
 Pd            16.01118470      15.08300841      22.11848704       0.00120713      -0.00041823      -0.00237036      -0.14765821       0.26510627      -0.38813159      -4.32049502 F F F
 Pd            14.01446615      17.88150539      14.29806571      -0.00054155      -0.00006698      -0.00058644      -0.23406036      -0.05874266       0.03576246      -4.22632883 F F F
 Pd            21.22925881      14.53586486      14.39857300       0.00224213      -0.00132841      -0.00017140      -0.17057921      -0.10946536       0.35128877      -4.04957439 F F F
 Pd            14.60366277      22.71473750      21.31907845       0.00037088      -0.00303719       0.00014516       0.60648497       0.13350178       0.08175007      -3.77880979 F F F
 Pd            22.89160217      14.26198044      16.54439338       0.00167616       0.00146502       0.00045883       0.06841442       0.51507166      -0.18739398      -3.47784265 F F F
 Pd            19.86224183      23.27029079      16.98923724      -0.00043644      -0.00169421      -0.00093930      -0.60915564       0.03986753      -0.26338592      -4.11186906 F F F
 Pd            22.60979295      19.08486583      16.61962534       0.00047674      -0.00190570      -0.00032821      -0.88125029       0.43354438      -0.91972410      -4.09803404 F F F
 Pd            14.78269795      19.99004340      21.58044958      -0.00002334       0.00046408      -0.00135176      -0.35417861      -0.28235709      -0.27382571      -4.68379602 F F F
