      25
 Properties=species:S:1:pos:R:3:velocities:R:3:forces:R:3:local_energy:R:1:fix_atoms:S:3 Lattice="18.2029650923       0.0000000000    0.0000000000    0.0000000000   17.4881963753    0.0000000000    0.0000000000    0.0000000000   17.7218525895" temperature=571.93685628 pressure=-74.68665992 time_step=2.0000 time=2000.000000 energy=-80.208990 energy_soap=-27.90179748  energy_2b=-32.38026451 energy_3b=0.00000000 energy_core_pot=0.00000000 energy_vdw=0.00000000 energy_exp=0.00000000 energy_xps=0.00000000 virial="-4.06185181          -1.12630429     -3.94977076     -1.12630429     -0.63944881      0.09001572     -3.94977076      0.09001572      0.36377981" stress="0.00071999            0.00019965      0.00070013      0.00019965      0.00011335     -0.00001596      0.00070013     -0.00001596     -0.00006448" volume=5641.521887 step=1000
 Au             5.14809482       9.78773358      10.70528297       0.00062602       0.00242820      -0.00125153      -0.36716357       0.87847549      -0.11535464      -2.12722709 F F F
 Au             9.86175735       5.08927239       8.04987697      -0.00057942       0.00009374       0.00197702       0.30760169      -0.00751056      -0.16916884      -2.58541202 F F F
 Au             9.08756333      10.94392909       8.35101925       0.00110657       0.00067069      -0.00038116       0.58659982       0.00277867       0.81686039      -3.03154345 F F F
 Au             8.68180018       6.11667286      12.48237963      -0.00067390       0.00040068       0.00072232      -0.08717882       0.95369324      -0.08514385      -2.29820338 F F F
 Au            11.94607920       8.15562366       6.66128108      -0.00026774      -0.00216628      -0.00124381       0.05275018       1.65094684      -0.01821959      -2.43921012 F F F
 Au            12.34211194       6.57591830       8.79742935       0.00039396       0.00093655      -0.00043054      -0.00012081       0.19992520      -0.03172239      -2.44045356 F F F
 Au            10.53190244      11.24665730      10.92996834      -0.00207264       0.00259385       0.00196351      -0.64287817      -0.04773824       0.07808651      -2.42928524 F F F
 Au             9.75330244       9.67578813       6.00095080      -0.00104787       0.00315163       0.00196408       0.15086049       0.35719426      -0.30608296      -2.59476146 F F F
 Au            12.23801900       9.25805989      11.62620683       0.00230756      -0.00256827       0.00004274      -0.55160425      -0.42247276      -0.14984644      -2.39237292 F F F
 Au            10.63794343       6.12575819      10.71662347      -0.00181629      -0.00302985      -0.00059958       0.00850385      -0.13416900       0.28430065      -2.72981042 F F F
 Au             7.05828170      10.57905672       6.73944004      -0.00176926      -0.00228658       0.00130958      -0.47134260      -0.01828804      -0.37304999      -2.53668483 F F F
 Au             6.77620581       7.90120276      11.50082514       0.00061313      -0.00073491      -0.00139895       0.90470484      -0.51497039       0.11813255      -2.78498063 F F F
 Au             9.26687921       6.50005561       5.48878686      -0.00233546       0.00140342      -0.00187141       0.06964625      -0.04582649      -0.27313427      -2.61929592 F F F
 Pd             6.32939304      11.86150712       8.94831909       0.00299653      -0.00146082      -0.00295051       0.06343608      -0.46148410       0.20204064      -3.42680482 F F F
 Pd             9.45919371       7.76786350       7.76720209       0.00012584      -0.00055637       0.00180142       0.02444635       0.62829181       0.76916857      -4.72189950 F F F
 Pd             6.92293078       8.97552431       8.92718629       0.00018512       0.00004447      -0.00059835       0.49504441      -0.91354263      -0.92326831      -4.57959563 F F F
 Pd            11.51937547       9.76520899       8.95095822      -0.00185099       0.00179681       0.00241111       0.35170626      -0.43451465      -0.86255363      -3.95824512 F F F
 Pd             9.65989056       8.59119331      10.29926741       0.00415177       0.00198739      -0.00039505      -0.57856860      -0.18646237       0.31565757      -4.81541710 F F F
 Pd            10.97724842       7.76348195      13.51798067       0.00134693       0.00200935       0.00201386       0.18457471      -0.70350743      -0.55994582      -3.21782500 F F F
 Pd             8.03225897       6.37026512       9.47482539       0.00121650      -0.00076927      -0.00152691      -0.35018954       0.16875219       1.06542097      -4.15577176 F F F
 Pd             9.03310648       9.11280291      12.78845817       0.00052271      -0.00034528      -0.00442459      -0.51742156       0.29852603      -0.66072564      -3.75906386 F F F
 Pd            11.85245775       5.70967693       6.25252144       0.00088775       0.00268817       0.00045792      -0.38452172      -1.20983082      -0.21705363      -3.23549619 F F F
 Pd             7.42727490       8.63557761       5.08959105       0.00153964      -0.00233681       0.00149844       0.30117818      -0.60122038      -0.27246946      -3.40036074 F F F
 Pd             7.83042005      10.58267401      10.72187632      -0.00107636      -0.00136952       0.00086640       0.25930990       0.28726468       1.06008229      -4.20622082 F F F
 Pd             6.98208864       6.87538861       7.03680845      -0.00058453      -0.00321972      -0.00052994       0.19062662       0.27568943       0.30798933      -3.72304840 F F F
