      55
 Properties=species:S:1:pos:R:3:velocities:R:3:forces:R:3:local_energy:R:1:fix_atoms:S:3 Lattice="19.5718046752       0.0000000000    0.0000000000    0.0000000000   19.9614250672    0.0000000000    0.0000000000    0.0000000000   21.1848089344" temperature=718.78376327 pressure=400.96350235 time_step=2.0000 time=10000.000000 energy=-196.000306 energy_soap=-59.40988868  energy_2b=-86.83171939 energy_3b=0.00000000 energy_core_pot=0.00000000 energy_vdw=0.00000000 energy_exp=0.00000000 energy_xps=0.00000000 virial="-1.53418391           0.39372469      3.27426124      0.39372469     -5.03002069     -1.23209321      3.27426124     -1.23209321      2.74380662" stress="0.00018537           -0.00004757     -0.00039561     -0.00004757      0.00060775      0.00014887     -0.00039561      0.00014887     -0.00033152" volume=8276.504722 step=5000
 Au            10.02752420      11.80964335      10.57114247       0.00092322       0.00070741       0.00406688      -0.42477398       0.18349034      -0.76614200      -3.47175863 F F F
 Au             4.99945478      10.76670818      12.40107725       0.00323144      -0.00155631       0.00095460      -0.70596095      -0.68220547       0.97104708      -2.61226041 F F F
 Au            10.35207694      14.32467963      11.79064239      -0.00152902       0.00142423       0.00056920       0.82589030      -0.28503987      -0.00950138      -2.82337693 F F F
 Au             9.57994942       4.75911187       9.25200800       0.00153190       0.00161546      -0.00116341       0.92818907      -0.27796728       1.00964137      -2.30142910 F F F
 Au            13.92633798       7.51091531       9.45636401      -0.00155128      -0.00005839      -0.00138924      -0.22745487      -0.01064912       0.14758383      -2.53359558 F F F
 Au             9.61542449      12.62742731      14.12947705      -0.00271242      -0.00054577      -0.00090516      -0.42057240       0.86883929      -0.67931711      -2.98395258 F F F
 Au             7.90284904      10.20352707       6.89281490       0.00213602      -0.00163968       0.00098489      -1.13404741      -0.02175461      -1.59997223      -3.01785383 F F F
 Au             6.99748152      12.05994889      11.24335685      -0.00259562       0.00274219      -0.00054058       2.96243774       0.69456404       0.27120058      -3.29711204 F F F
 Au            11.78036095       6.42310903      10.82905117       0.00172056      -0.00251791      -0.00209108      -0.23479503       0.04037924       0.42402282      -2.84824405 F F F
 Au            12.09582526      10.77068455       8.97836862       0.00012216       0.00043991       0.00020383       0.69797827      -0.87907977       0.38735266      -3.38161033 F F F
 Au             8.49775947      14.87231434       7.37559205       0.00076592      -0.00054166       0.00191261       0.19312833      -0.02304038      -0.17603477      -2.44621025 F F F
 Au            12.56955547      13.40910668      13.34017998      -0.00082361      -0.00331005      -0.00264086      -0.29834096      -0.47904353      -0.19965029      -2.39756204 F F F
 Au            14.87389735      11.06448659       7.39598591       0.00039003      -0.00170013      -0.00156889       0.65843627      -0.43478002       0.26667310      -2.39661551 F F F
 Au            13.91218699       8.67958390      11.88105480      -0.00039319      -0.00174746       0.00084258      -0.45940497      -0.50211170       0.19943666      -2.99019970 F F F
 Au            11.61228347      11.41474764      15.20402778       0.00103824       0.00132188      -0.00170376       0.90942736      -0.54895965       0.44856238      -2.64669370 F F F
 Au            11.44834494       7.70954645       5.63247991      -0.00174397      -0.00219597      -0.00149478      -0.53001142       0.20131506      -0.23513712      -2.45676505 F F F
 Au            11.45246197       6.47756902       8.16169751       0.00084724       0.00174907       0.00276841       0.02073577       0.74254540      -0.52114676      -2.97589197 F F F
 Au             6.52512733       6.03413744      10.17320789       0.00102033      -0.00052288       0.00213691       0.36060474      -1.07600746       0.97620866      -2.77305091 F F F
 Au            12.85816584      12.68027612      10.63091338       0.00146572      -0.00259888       0.00226769      -0.06368599       0.59307216       0.25547441      -3.05608531 F F F
 Au            11.20776333       8.74331157      16.00660688       0.00164341       0.00022227      -0.00306490       0.24766788      -0.07099788      -0.81814435      -2.40080980 F F F
 Au             6.08662216      14.19635178       8.62030176      -0.00131691       0.00217411      -0.00391010      -0.97037850      -0.03739015      -0.21088004      -2.57230662 F F F
 Au             7.91619172      14.37025842      12.85122964      -0.00043394      -0.00072989       0.00057131      -0.65839669      -0.61254448       0.37322044      -2.30322269 F F F
 Au             6.60057373       8.00745822       8.45374485      -0.00196959      -0.00093422      -0.00015297      -0.46166417       0.88599295      -1.37991770      -2.95459380 F F F
 Au             9.04949305      10.30139611      12.54000957       0.00012452      -0.00068289      -0.00100150      -0.12794591      -0.34670502       0.28488356      -3.49678339 F F F
 Pd             6.86127738       9.14398258      13.65137283      -0.00235439      -0.00058365       0.00207010      -0.29328559      -0.34404473       0.81721685      -4.25711115 F F F
 Pd             4.76007776      12.73589986      10.49854111       0.00218855       0.00002739      -0.00547842      -1.08881543       0.13126641      -1.01582742      -3.51150232 F F F
 Pd             7.52268649       8.45574681      11.32380880       0.00045742      -0.00034904       0.00438496       0.75015946      -0.18680587      -0.02670180      -4.79104033 F F F
 Pd            11.73463730       7.88032385      13.19696034       0.00053535      -0.00221019       0.00408608      -0.14449483       0.38260065      -0.11774000      -4.29631280 F F F
 Pd            10.75155588       8.95424544      10.65966440      -0.00038312       0.00258640       0.00200620       0.07445063       0.37387572       0.34277012      -4.91563027 F F F
 Pd             8.14050932      14.55098228      10.18375335      -0.00037853      -0.00125454      -0.00027009       0.37720650      -0.04375246       0.33668697      -4.11078032 F F F
 Pd             8.74478075       7.56528367       6.18704028      -0.00199258      -0.00278323       0.00037139       0.25350134       0.52431837       0.66600700      -3.95806502 F F F
 Pd            13.02483818      12.89537621       7.69437838       0.00028673       0.00275858       0.00174643      -0.05014980       0.99078189       0.62547298      -3.72768169 F F F
 Pd            10.53556185      13.99204923       9.03505297      -0.00270785       0.00173537      -0.00089184       0.63444518      -0.25614372      -0.14364847      -4.23169302 F F F
 Pd            14.75537058      10.23157830       9.95488359      -0.00218259       0.00544054       0.00077220      -0.46612701       0.07014717      -0.89010324      -3.89840347 F F F
 Pd            13.50724209       9.55103202      14.43464076       0.00115719      -0.00034580       0.00059068      -0.64420161       0.22556430      -0.25517892      -3.78188849 F F F
 Pd             6.76430607       6.52767110      13.03319712      -0.00112059       0.00407400       0.00067150       0.49262226       0.01689325      -0.05112486      -3.77092448 F F F
 Pd             9.32459568       7.73421822      13.98406592       0.00356299      -0.00068911      -0.00110955      -0.75089998       1.07618048       0.72755206      -4.20168213 F F F
 Pd             5.75990095      10.03887008       9.99171915       0.00013264       0.00160396      -0.00050116      -0.87251034      -0.13155569      -0.57930614      -4.36922036 F F F
 Pd             8.09704986      12.45065059       8.42732213      -0.00278096       0.00325121      -0.00023242       0.45773633      -0.32344898       0.09337382      -4.78820407 F F F
 Pd             9.08594867      10.21451086      15.27741670      -0.00342690       0.00104686      -0.00265122      -0.40706108      -0.27657448      -0.24802617      -4.06139054 F F F
 Pd             5.03195618       7.76516037      11.42957355      -0.00011353      -0.00025681       0.00279099      -0.59938715       0.77466071       0.28010786      -3.75024028 F F F
 Pd             8.99436766       7.34533042       9.47453681       0.00116172       0.00276231      -0.00380126       1.07128585       0.06288426      -0.55278759      -4.75050869 F F F
 Pd             7.00838860      11.71259705      14.09079409       0.00253849      -0.00492967       0.00075024       0.39667849       0.40580286      -0.47346969      -3.89320681 F F F
 Pd             9.29707345       6.31973829      11.97294042       0.00213919       0.00126013      -0.00124751      -0.02175331      -0.36453806      -0.94240881      -4.24575837 F F F
 Pd            12.71034837      10.88610033       5.93941991      -0.00187657      -0.00084202      -0.00150524      -1.29179750      -0.08342680      -0.59573823      -3.93346485 F F F
 Pd             5.53279971      11.56563885       7.83776191       0.00424092       0.00549882       0.00067853       0.58626007       0.09727803       0.39863951      -3.75999934 F F F
 Pd            10.42890371       9.26464146       7.68803475      -0.00005098      -0.00044007      -0.00080643      -0.24447375      -0.69054044       0.13671962      -4.88730570 F F F
 Pd            14.44003525      11.20925893      12.38840594      -0.00036145      -0.00075380       0.00178878      -0.44883094       0.69608274       0.55798625      -3.76034920 F F F
 Pd            11.70550978      10.89635682      12.55216242       0.00066070       0.00062366       0.00343167       0.60511359      -0.70229708      -0.16200839      -4.78657760 F F F
 Pd             8.27400569       9.98578349       9.30747983      -0.00271481       0.00214083      -0.00244104       1.28646610       0.20151423       1.81183786      -4.62103839 F F F
 Pd             8.66727740      12.61703288       5.61122885      -0.00161736      -0.00363836      -0.00047709      -0.41658494      -0.12362689       0.35368109      -3.61802814 F F F
 Pd             9.91317115      10.18163455       5.21652552       0.00153367       0.00185218       0.00241919       0.81455652      -0.08918398      -0.03252417      -3.97837478 F F F
 Pd            13.21664809       8.75750139       7.26813129      -0.00017613      -0.00250249       0.00410560       0.06264060       0.11718133       0.65034464      -4.09684610 F F F
 Pd            10.61605692      12.13761866       7.14323070      -0.00122920      -0.00223110      -0.00135475      -0.59121474      -0.44876556      -0.04217706      -4.61425395 F F F
 Pd             7.70848379       5.63547138       7.83284816       0.00162792       0.00238976      -0.00243748      -0.61859742      -0.00424980      -1.08908947      -3.49483888 F F F
