      79
 Properties=species:S:1:pos:R:3:velocities:R:3:forces:R:3:local_energy:R:1:fix_atoms:S:3 Lattice="35.7628792317       0.0000000000    0.0000000000    0.0000000000   36.6921520258    0.0000000000    0.0000000000    0.0000000000   36.3954050195" temperature=1153.86193170 pressure=947.37116978 time_step=2.0000 time=1000.000000 energy=-267.323974 energy_soap=-90.13744909  energy_2b=-112.82764745 energy_3b=0.00000000 energy_core_pot=0.00000000 energy_vdw=0.00000000 energy_exp=0.00000000 energy_xps=0.00000000 virial="10.55781171          -3.44176557      1.56457397     -3.44176557     26.52945834      7.23083699      1.56457397      7.23083699     24.36509304" stress="-0.00022107           0.00007207     -0.00003276      0.00007207     -0.00055549     -0.00015140     -0.00003276     -0.00015140     -0.00051017" volume=47758.669249 step=500
 Au            16.62965629      18.91778322      25.35577252       0.00054397       0.00283274       0.00105331      -1.74637815      -1.55786918       1.00219073      -2.16860358 F F F
 Au            15.99898341      19.53111766      16.47852362       0.00404586      -0.00110628      -0.00065380      -0.23908828       2.26387585      -0.91501251      -3.31288797 F F F
 Au            15.87335109      23.70119245      19.14499394      -0.00094168      -0.00280643      -0.00249241       0.19849792       0.93765990       0.22106915      -2.52137794 F F F
 Au            20.09088523      19.96207607      18.93817752      -0.00076128       0.00207975       0.00191467       0.61054977       0.63074223       1.24027313      -3.36500141 F F F
 Au            18.94596430      13.92990273      19.83094947      -0.00094779       0.00118776       0.00133681       0.16174548       0.25544461      -0.76084228      -3.22027006 F F F
 Au            18.20371188      19.73602477      14.44037673       0.00121043       0.00078185      -0.00400320      -0.28356821       0.69123971       0.95137485      -3.11623378 F F F
 Au            17.30257242      15.27993426      24.08652001       0.00067644       0.00152952       0.00319850       1.24854952      -1.98756778       2.02620081      -2.00349426 F F F
 Au            18.73918061      15.29078399      12.33538220       0.00328739       0.00362111       0.00015111       0.29638355      -1.28667994       0.44257197      -2.26481195 F F F
 Au            13.07309587      21.56951042      17.89712820       0.00132629       0.00086997       0.00216764      -0.46627027      -0.97871502      -0.37227026      -2.51559132 F F F
 Au            18.48686012      21.12690953      16.91271673      -0.00240523      -0.00004485       0.00085359       0.22686970      -0.46423888      -1.45935827      -3.37842663 F F F
 Au            11.69253198      16.61641470      15.47209013       0.00049804       0.00166699       0.00016628       0.62450080       0.07331386       0.74536402      -2.19222373 F F F
 Au            11.43636350      17.67731004      18.19534757      -0.00214370       0.00126073      -0.00282161       0.32622615      -0.19544308       0.22528316      -2.50409177 F F F
 Au            21.03156974      22.86150922      19.16564678      -0.00108059       0.00083904      -0.00215199       0.53944289      -0.66235060       1.06590246      -2.50812265 F F F
 Au            15.30143712      21.15522750      19.46107258       0.00355853       0.00075070       0.00039813      -0.39514979      -0.78299519      -0.90316321      -3.29658399 F F F
 Au            15.79922558      15.91856802      19.48549698       0.00093859       0.00279902       0.00278398      -0.43399077       2.69171763       1.85356686      -3.13871112 F F F
 Au            15.90470947      18.94552585      13.47164881       0.00107196       0.00015127      -0.00088998      -0.54833180      -0.60544705      -0.39322874      -2.99660353 F F F
 Au            13.89770045      20.47838948      14.55644053       0.00304264       0.00042578       0.00101571      -0.43562126      -0.43002390       0.60581699      -2.39991215 F F F
 Au            14.86793578      11.29468825      18.39781508      -0.00342390       0.00296757      -0.00037537       0.58819610       0.99391564       0.15650575      -2.15835671 F F F
 Au            20.42444067      19.03951805      16.46881479      -0.00052689       0.00080801       0.00139967      -0.30616308       0.03461581      -0.84946377      -3.45413106 F F F
 Au            19.75865725      18.61013293      21.79752126       0.00134603       0.00191497      -0.00169360       1.01855317       1.65543891      -1.85436632      -3.16576894 F F F
 Au            15.21732816      22.59112466      16.81109706       0.00123871      -0.00453048       0.00104649      -0.49986417      -0.63810549      -0.60796086      -2.81052854 F F F
 Au            12.37679982      21.89964723      20.45484570       0.00313503       0.00102633       0.00303989      -0.46058105       0.55913423       0.14249056      -2.31041405 F F F
 Au            16.28419327      17.04314779      16.69353518       0.00207214       0.00319054      -0.00259178      -0.55563884      -1.41727150      -0.68611389      -3.29673235 F F F
 Au            17.95298303      14.78105345      16.38821147       0.00709113      -0.00157108      -0.00144131       0.01759930      -0.14585165      -0.69684196      -3.26093851 F F F
 Au            15.96628320      21.12337481      23.96986661       0.00044118      -0.00213957      -0.00347123      -0.55047307       0.65756095      -0.50809406      -2.67804925 F F F
 Au            23.26221957      17.60348844      20.27915818      -0.00531419       0.00216336       0.00096446       1.31678909      -0.58549340       0.11784353      -2.33805730 F F F
 Au            14.52949392      14.39944943      14.43666478      -0.00187101      -0.00023281       0.00017486      -0.00673977       0.71538672       0.28997770      -2.63666005 F F F
 Au            16.67462714      22.43690777      21.45825809       0.00239295       0.00094980      -0.00131462       1.56111270       0.50647975       0.41167049      -2.75915716 F F F
 Au            23.64676281      20.75347135      19.40601605      -0.00027629      -0.00515668      -0.00088191      -0.54088058      -0.06439346       0.45941917      -2.35530185 F F F
 Au            22.69393549      17.42161812      15.48309604      -0.00006080      -0.00185164      -0.00367020      -0.78655411      -1.11012714      -0.24024916      -3.01673278 F F F
 Au            20.30380998      13.48211079      17.10673414      -0.00012293       0.00062548      -0.00293142      -0.09650243      -0.78502940       1.10821389      -2.95754042 F F F
 Au            18.27421229      16.72321088      18.38758260       0.00102293      -0.00099420       0.00232804       0.20147651       0.25992698       0.57271721      -3.12801303 F F F
 Au            23.02063794      15.98165000      18.20483379       0.00207142       0.00251344      -0.00003776      -0.32891822      -0.13981651      -0.53834614      -2.67370218 F F F
 Au            15.97936318      14.05959749      18.00636677      -0.00124722       0.00019213      -0.00271403      -0.62160352      -1.29800664      -2.20482854      -2.70375552 F F F
 Au            17.09792893      19.80517557      21.59045739      -0.00030731       0.00198946       0.00168020       0.34545846      -0.69500636      -0.09452474      -3.40806334 F F F
 Au            21.31271495      21.28841126      14.72189372      -0.00426136       0.00015339      -0.00349582      -0.35929015       1.56943022       0.06555171      -2.76982766 F F F
 Au            19.87668489      21.56861348      21.36740510      -0.00336179      -0.00452341       0.00266872      -0.33491667      -0.77359369      -0.23563971      -2.61414518 F F F
 Au            13.87061452      13.89668285      20.16726399       0.00062630      -0.00288992      -0.00088933       0.71290591      -0.85201161      -0.55792552      -2.49957898 F F F
 Au            17.41847587      19.51835691      18.86321031      -0.00239239      -0.00068480      -0.00057532      -0.30646055      -0.80121596       0.19143531      -3.28129753 F F F
 Au            20.41342824      16.25773668      17.08514391      -0.00075978       0.00274021       0.00280810       2.05330971      -0.17538256      -0.23483137      -3.23909399 F F F
 Pd            17.74320339      12.23622379      17.83367778       0.00319343      -0.00124759       0.00227491       0.84119763      -0.38167908       0.05822998      -3.84205150 F F F
 Pd            20.79188570      17.38807484      19.55428782      -0.00183108      -0.00638337       0.00593457      -0.99593805      -0.33744081       0.23729402      -4.46352629 F F F
 Pd            18.39101013      22.55927422      19.08548702       0.00125701      -0.00142050       0.00171572      -0.13426545      -0.09330747       1.27818693      -4.30505890 F F F
 Pd            20.56512968      19.16034328      13.71274310      -0.00130742       0.00022293      -0.00032384       0.53262658      -0.77621520      -0.57358191      -3.82791436 F F F
 Pd            19.03451964      17.24562307      23.65745831       0.00297208       0.00405317       0.00233071      -0.55162373      -0.80383601       1.61958859      -4.09557263 F F F
 Pd            16.65319829      16.19866015      14.13015281      -0.00083828      -0.00219433      -0.00032587       0.22085200      -0.66387240       0.18581475      -4.41823953 F F F
 Pd            17.68679257      17.28462647      20.79472491      -0.00348146      -0.00078248      -0.00102171       0.19440612       0.24635390       0.63388011      -4.59011420 F F F
 Pd            17.53851058      23.57758653      16.79845700      -0.00298710       0.00481859       0.00136581       0.82243490       0.58897191      -0.66600538      -3.82269147 F F F
 Pd            16.55830006      12.88528854      20.22957908       0.00188762      -0.00013727       0.00007353      -0.91205605      -1.64996081      -0.07509793      -3.81160795 F F F
 Pd            19.69315299      15.36262328      21.89899208       0.00464465       0.00394767      -0.00103141      -0.43933136       0.79475615      -0.12437737      -3.81119491 F F F
 Pd            21.06228260      19.03369396      24.11401294      -0.00052708      -0.00418742      -0.00328880      -0.35327785       0.19022119      -0.51954516      -3.26499143 F F F
 Pd            13.14014553      16.35938792      19.98857260      -0.00330153      -0.00202493       0.00284353      -1.04806497       0.92830107       0.50456639      -3.94363352 F F F
 Pd            15.11734644      15.94363154      12.08121259      -0.00113666      -0.00316618      -0.00389072       0.00675664       0.19706453       0.68113194      -3.20368302 F F F
 Pd            13.78791169      13.40032434      16.89108538      -0.00140316      -0.00037327      -0.00033039      -0.41700646       0.15977398      -0.18504073      -3.47739327 F F F
 Pd            22.12866336      21.29567736      17.15893449      -0.00358695      -0.00083065       0.00408410      -1.05741124       1.55524027       2.25773449      -4.07821313 F F F
 Pd            14.73003282      17.96808550      21.24954902       0.00558675      -0.00027352       0.00214657       0.64881457      -0.41418104      -0.98753339      -4.55763327 F F F
 Pd            22.63439637      18.78346647      17.92707345      -0.00338065      -0.00091160       0.00286755       0.04872916      -0.88931723       0.68503724      -4.41769719 F F F
 Pd            12.79937171      19.41261010      20.01066052       0.00152083      -0.00299936       0.00468208      -0.83479915      -0.86564658      -0.15041742      -4.17847774 F F F
 Pd            14.18687724      18.64257427      23.64035478      -0.00254073       0.00141929      -0.00032059       0.24419478       0.15379466       1.06735672      -3.58462463 F F F
 Pd            18.82803177      22.29768730      14.30375737       0.00064915      -0.00134648       0.00283618       0.09756591       0.49161064       0.83962415      -3.72506501 F F F
 Pd            18.84280321      17.23958582      15.18309899       0.00307264       0.00067910      -0.00110863      -0.01123462      -0.39338260       0.19573981      -4.76013044 F F F
 Pd            18.28970470      19.87177407      23.95185250      -0.00150608      -0.00084396      -0.00452507       2.83366275       0.69450894      -1.28571567      -3.81164695 F F F
 Pd            20.98460657      16.74655273      13.29012635       0.00378669      -0.00087659      -0.00285168      -0.20508553      -0.89629650       0.06988853      -3.88478379 F F F
 Pd            14.56534319      18.47882638      18.53856900      -0.00152721      -0.00310804       0.00090686       1.98654439      -0.30952398       1.39990797      -4.54219786 F F F
 Pd            20.16371948      11.73016043      19.16444738      -0.00343324       0.00224365       0.00224873      -0.22491517       0.10533317      -0.36599577      -3.02558283 F F F
 Pd            18.27410649      17.67455569      12.65895574       0.00151753      -0.00074719      -0.00113285      -0.05188048       1.68175079      -0.33956590      -3.96901583 F F F
 Pd            16.19443004      21.64828310      14.47805264      -0.00099374      -0.00435743       0.00243679       0.77650142       0.14840557       0.20283633      -3.92762593 F F F
 Pd            13.86152697      16.13739399      17.57462787      -0.00143985       0.00385533       0.00298753      -0.56485153      -0.80339864      -1.72946242      -4.59774641 F F F
 Pd            16.32440942      17.18254195      23.08952429      -0.00089457       0.00106599      -0.00352702      -0.57163452       1.98282265      -0.46579721      -4.18852008 F F F
 Pd            13.20733561      18.76471502      16.57328834      -0.00142403      -0.00101453       0.00161014      -0.63072112       0.58030790      -1.72114341      -4.16340655 F F F
 Pd            22.41201423      19.44658188      21.65216036       0.00276418      -0.00311748       0.00049614      -1.15754585       1.33070191       0.47877715      -3.61882730 F F F
 Pd            16.96739688      14.86283628      21.61964824      -0.00382760      -0.00150577      -0.00015441       0.12964896       0.55951052       0.24899888      -4.16427456 F F F
 Pd            14.15152902      17.19734240      14.50763431       0.00461478       0.00230669      -0.00123433      -0.05912473      -0.08587570       0.29371661      -4.35678024 F F F
 Pd            20.18964668      14.78135878      14.82894639      -0.00422085      -0.00058049       0.00285160      -0.41417090       0.24124851      -1.30643222      -4.07191561 F F F
 Pd            14.23082564      23.00641854      21.87098099      -0.00435034      -0.00423542      -0.00730840      -0.19628510       0.77102482       0.28688433      -3.38901385 F F F
 Pd            22.56655481      14.59940370      15.94907553      -0.00448838      -0.00321314       0.00289711      -0.06420823       0.54039332       0.14466238      -3.50790583 F F F
 Pd            20.36873188      23.34170817      16.77740659       0.00047764      -0.00081098      -0.00201130      -0.85109823      -0.40220447      -1.25192839      -3.80983702 F F F
 Pd            23.41062522      19.91657513      15.77191737      -0.00290871       0.00809618       0.00031404       1.44357016      -0.51738262      -1.86421544      -3.35821665 F F F
 Pd            14.48558234      20.44088237      21.82282004       0.00321253      -0.00317416      -0.00188592      -0.82615762       0.27817773       0.45962027      -4.33836842 F F F
