      79
 Properties=species:S:1:pos:R:3:velocities:R:3:forces:R:3:local_energy:R:1:fix_atoms:S:3 Lattice="35.8881027227       0.0000000000    0.0000000000    0.0000000000   35.8124235808    0.0000000000    0.0000000000    0.0000000000   35.2451767574" temperature=305.82767333 pressure=288.93225590 time_step=2.0000 time=1000.000000 energy=-284.021394 energy_soap=-82.53792425  energy_2b=-135.83775387 energy_3b=0.00000000 energy_core_pot=0.00000000 energy_vdw=0.00000000 energy_exp=0.00000000 energy_xps=0.00000000 virial="8.74214762            0.00478483     -1.91853273      0.00478483      8.19484790     -2.16874520     -1.91853273     -2.16874520      1.40316269" stress="-0.00019299          -0.00000011      0.00004235     -0.00000011     -0.00018091      0.00004788      0.00004235      0.00004788     -0.00003098" volume=45298.508728 step=500
 Au            21.14960113      16.87870986      16.10325379       0.00069052       0.00130930      -0.00126512      -0.26848114      -0.25265351       0.27282237      -3.38413124 F F F
 Au            16.12900936      23.49861474      15.87334608      -0.00014766      -0.00089594       0.00050406       0.12007271      -0.10888536       0.44173567      -2.63869179 F F F
 Au            18.80358212      16.73280625      14.47660912      -0.00049153      -0.00241564      -0.00104823       0.53707629       0.02186694       0.47137304      -3.47861343 F F F
 Au            15.66639968      19.97785214      11.63759303       0.00055994       0.00009671       0.00090565      -0.40250464       0.01989420      -0.14186735      -2.44207468 F F F
 Au            20.47783609      14.50376600      21.83951835      -0.00172428      -0.00263390      -0.00092212      -0.38155424      -0.75058876       0.93505935      -2.28424000 F F F
 Au            16.46069835      13.18361473      17.20913224       0.00055228      -0.00007511      -0.00106859       0.89003506      -0.49617401      -0.02719590      -2.85644103 F F F
 Au            16.15650708      16.90486958      21.34288409       0.00106452       0.00013218       0.00057669       0.27309675      -0.28515487       0.36613660      -3.35163098 F F F
 Au            15.79952986      23.18675682      18.70045232      -0.00165849      -0.00044311      -0.00208604      -0.84021144      -0.25644547      -0.61650053      -2.84814650 F F F
 Au            12.63571047      20.24009081      21.16346775      -0.00081677       0.00088790      -0.00064344       0.74716274      -0.02698066      -0.28522324      -2.46075005 F F F
 Au            23.98419576      17.15294054      15.97747868      -0.00108510      -0.00038481      -0.00021431       0.25610692      -0.83103053       0.22201624      -2.65096342 F F F
 Au            19.47555155      16.94629879      21.42596041      -0.00055263       0.00098298       0.00033301      -0.52666248       0.55234905       0.16165008      -3.31689194 F F F
 Au            20.27125307      11.31690435      18.92816865       0.00000954       0.00038920      -0.00217437      -0.10950109       0.03775257       0.28641379      -2.19418982 F F F
 Au            22.46615305      21.86520614      18.05522112       0.00049922      -0.00044238       0.00067016      -0.65933437       0.14943647       0.01788105      -2.77514798 F F F
 Au            20.34842148      19.10428526      22.85188387      -0.00084762       0.00033403       0.00038316      -0.21189244       0.24399306      -0.18696256      -2.52899747 F F F
 Au            13.11245042      15.88069565      19.63535538      -0.00058057       0.00027815      -0.00126858      -0.08402604      -0.31636136       0.23492857      -2.84167112 F F F
 Au            22.94598965      14.79111266      14.96149136      -0.00058081       0.00089308       0.00034030      -0.31698376      -0.15132321       0.42838464      -2.44022915 F F F
 Au            23.76146923      20.20635559      19.59816670       0.00116819       0.00196811       0.00002964       0.13694678      -0.81023795       0.39059706      -2.44106867 F F F
 Au            17.49604374      20.95083377      20.06854177       0.00131456      -0.00079483       0.00202698      -0.47534837      -0.17656161       0.07765284      -3.49084718 F F F
 Au            20.44242369      13.50484068      14.76428477      -0.00012122      -0.00066241      -0.00136387       0.56462947       0.28016483      -0.00940495      -2.95407386 F F F
 Au            12.47748710      18.54599879      18.95330402       0.00210000      -0.00145926      -0.00074574       0.33883267       0.55600184       0.54661825      -2.95196041 F F F
 Au            18.86485159      20.49313191      17.66235946       0.00073400       0.00066120      -0.00001751      -0.66386292       0.77408595      -0.62584332      -3.41190432 F F F
 Au            21.31653669      19.21460335      17.54590814       0.00238663      -0.00004611       0.00121867       0.35317500       0.46151575      -0.02540549      -3.53064788 F F F
 Au            19.14448814      14.11546731      12.52503487       0.00104302       0.00015056       0.00120496      -0.01331459       0.53598492      -0.30622689      -2.35241633 F F F
 Au            17.43778998      18.27564865      19.37046164       0.00103111       0.00114870      -0.00042999       1.50962284      -0.04543014      -0.42387831      -3.34452103 F F F
 Au            21.68568323      12.77207276      17.04774795      -0.00033837       0.00035835      -0.00023896       0.08893219       0.12247099      -0.07158823      -2.70381439 F F F
 Au            21.75376664      20.94540998      21.25178461       0.00026578       0.00184103      -0.00243700       0.10175159       0.26756424      -0.14701771      -2.79473109 F F F
 Au            14.49028768      14.79053100      16.93527892      -0.00011761       0.00037760       0.00310784      -0.51957706      -0.21165551       0.15278955      -2.77560645 F F F
 Au            21.41827148      16.52255470      13.46339476      -0.00071133      -0.00093336      -0.00065848       0.05872000      -0.03844964      -0.60488419      -2.90104313 F F F
 Au            20.34054877      16.91628311      18.82756635       0.00076846       0.00060179       0.00010141       0.50325286      -0.60769027      -0.23140519      -3.55572752 F F F
 Au            16.78668726      15.43495153      13.13687751      -0.00034425      -0.00000731      -0.00215977      -0.27889979       0.18671197      -0.70375601      -2.98996600 F F F
 Au            14.75759601      17.24416829      12.20662979       0.00175482      -0.00048177       0.00273093      -0.12289014       0.31830844      -0.37211255      -2.37397355 F F F
 Au            17.15188715      19.97771810      15.17237605      -0.00064078      -0.00163097       0.00265181       0.49026090       0.57158113      -0.58100963      -3.50541065 F F F
 Au            15.52712133      18.17892199      16.14811542      -0.00099043       0.00160360       0.00142665      -0.53454644      -0.87374110       0.96069646      -3.33084989 F F F
 Au            17.00236709      15.89287287      16.37976049       0.00005130      -0.00166259      -0.00008393      -0.83898251      -0.62398970      -0.15336026      -3.39398445 F F F
 Au            16.82076951      21.73604275      23.06952167       0.00019325       0.00417859      -0.00022451       0.01578025       0.34082545      -0.35774886      -2.51192102 F F F
 Au            16.01416193      20.43467298      17.62641346      -0.00091129       0.00013318       0.00134459       0.35974686       0.67228272      -0.10740570      -3.39718337 F F F
 Au            23.41708446      17.50839725      18.72899139       0.00054505      -0.00091673      -0.00086971       0.32196887       0.35648195      -0.34572581      -3.12213637 F F F
 Au            12.99408847      19.43733438      16.37680249      -0.00105543       0.00029082      -0.00140773      -0.24679422      -0.04376103       0.36371142      -2.84076986 F F F
 Au            22.58157177      21.51982584      15.31230473      -0.00030759       0.00043023       0.00060920       0.89476651      -0.38623267      -0.35100505      -2.66274240 F F F
 Pd            14.98552691      21.78279730      20.91594329       0.00053093      -0.00129322      -0.00178784       0.08188026       0.00004568      -0.04179504      -4.29368014 F F F
 Pd            18.29042203      23.21577871      17.79929905      -0.00095981      -0.00189519       0.00009002      -0.12212107      -0.15317891      -0.66255562      -4.17936627 F F F
 Pd            14.33120895      15.07508911      21.95586925       0.00125546      -0.00156227      -0.00022045       0.20989439       0.03365846      -0.48932359      -3.41955022 F F F
 Pd            18.96819771      12.26556510      16.81624647      -0.00055615      -0.00045690      -0.00010066      -0.25509630       0.29404702       0.01477417      -4.16111421 F F F
 Pd            19.89433478      19.94830908      15.23917090       0.00025494      -0.00040108       0.00051042      -0.26652517      -1.03485968       0.36592939      -4.76139335 F F F
 Pd            19.28465134      21.55325896      22.14426226       0.00174499       0.00178732      -0.00095547      -0.11211475      -0.20464677      -0.19452421      -4.14248138 F F F
 Pd            23.88181692      19.64964505      16.88674452       0.00060873      -0.00233535       0.00121418       0.23855270       0.34991797       0.41924513      -3.94694874 F F F
 Pd            14.68655233      16.17268112      14.58809690      -0.00134069      -0.00037908       0.00101000      -0.47310102      -0.09929266       0.72900410      -4.07350822 F F F
 Pd            14.37146575      21.49692564      15.65019595      -0.00129455       0.00229183       0.00037654       0.23068776       0.47139556       0.68011271      -4.04072937 F F F
 Pd            19.86293760      19.41684710      19.87557392      -0.00164161       0.00094441      -0.00067067      -0.36410292       0.21995656       1.04351410      -4.80991485 F F F
 Pd            18.13713150      20.66187732      12.55301304       0.00091229      -0.00061080      -0.00163559       0.41797083       0.21528332       0.60270790      -4.25525401 F F F
 Pd            19.92671599      22.18841365      19.56059950       0.00021435       0.00099116      -0.00025209       0.77596336       0.25944115      -0.17313399      -4.38918804 F F F
 Pd            15.83637128      21.95101594      13.50812601      -0.00066070       0.00062869       0.00293367       0.42889011      -0.13584119       0.17132583      -4.02727139 F F F
 Pd            18.59338708      17.92508890      16.90835297      -0.00008319      -0.00033238       0.00147468       0.20276532       0.45277939      -0.11712596      -4.80161397 F F F
 Pd            20.45706573      22.45263460      16.35037030       0.00004596       0.00051897      -0.00027935      -1.10591460       0.29639343       0.53455132      -4.24319034 F F F
 Pd            15.32812566      16.85409524      18.60100219       0.00165097       0.00190259       0.00003953       0.13295568       0.09078984      -0.49641392      -4.80025062 F F F
 Pd            15.58475687      14.32584839      19.60121784       0.00064128      -0.00108654       0.00020759      -0.01323624       0.13414332       0.36347169      -4.41836251 F F F
 Pd            14.48937490      19.39267165      14.06172069       0.00179334       0.00142630      -0.00213401       0.17519217      -0.06504013      -0.81676969      -4.35426689 F F F
 Pd            17.98627185      12.95372107      19.42143619       0.00267174       0.00051708      -0.00135264       0.35584640       0.02008451       0.03139377      -4.20597547 F F F
 Pd            20.20131639      18.94588871      12.78701105      -0.00166213      -0.00103612       0.00142821       0.11097422       0.54574366       0.58351156      -4.24060002 F F F
 Pd            22.43228844      18.87701323      14.75478245      -0.00270524      -0.00049713       0.00034518      -0.86466489       0.40745161      -0.81757828      -4.27918526 F F F
 Pd            22.67945465      15.16447023      17.72042168      -0.00068029       0.00108629       0.00276613      -0.22758075      -0.01696137      -0.29473212      -4.31531269 F F F
 Pd            17.08524193      18.21894887      13.02489206      -0.00045417       0.00019096       0.00087283       0.50800447       0.05917266       0.24668939      -4.59223324 F F F
 Pd            20.58214791      21.60638693      13.56365647      -0.00158454      -0.00231553       0.00055356      -0.11963033       0.37754180      -0.82891496      -3.83978118 F F F
 Pd            21.98478977      18.21897456      20.82417581       0.00031726      -0.00235032       0.00036703       0.33371040      -0.02687099       0.39624669      -4.27331658 F F F
 Pd            22.27182469      15.56328284      20.33965069      -0.00174674       0.00118935       0.00035569       0.79698119       0.83343743      -0.11363392      -3.88887839 F F F
 Pd            17.75842541      13.61696874      14.79230368      -0.00056348       0.00159241       0.00209503      -0.04644544      -0.08989461       0.76686886      -4.14026460 F F F
 Pd            19.42118353      14.96264770      16.99335176       0.00007841       0.00107738      -0.00098174       0.36986958      -0.47494109      -0.43628769      -4.88306771 F F F
 Pd            18.27595137      22.40552903      14.77875127       0.00044188       0.00084574       0.00346690       0.38466432      -0.22694696       0.06204742      -4.38604652 F F F
 Pd            15.09906153      19.27944007      19.80045563      -0.00103345      -0.00045571       0.00062652      -1.35800883       0.26788998       1.02921060      -4.81540489 F F F
 Pd            13.68461196      17.73369022      21.66698104      -0.00001044      -0.00412915      -0.00250397      -0.46300378       0.15590851      -0.48013715      -4.11143602 F F F
 Pd            17.63415292      23.49166067      20.56415695       0.00091267       0.00252747      -0.00058983       0.37126730       0.03178024       0.58576778      -3.75380825 F F F
 Pd            12.99715276      16.84646583      17.00063612       0.00037955      -0.00005808      -0.00380527       0.00533502       0.17722730      -0.49582462      -3.87125681 F F F
 Pd            17.79161949      14.77360518      21.57647102      -0.00367855      -0.00167233      -0.00165687      -0.45559304      -0.44590301      -0.01446223      -3.93768382 F F F
 Pd            15.20622518      19.69143935      22.65750131       0.00052451      -0.00126125      -0.00084888      -1.43231865      -0.13098281      -0.40641580      -3.93238942 F F F
 Pd            17.96322198      15.61499308      19.12428472       0.00031315       0.00054205      -0.00029630      -0.39403935       0.05966978      -0.13943289      -4.89050562 F F F
 Pd            17.56856848      19.11968744      22.16896952       0.00202851      -0.00016357      -0.00050275       1.56737728      -0.17745366      -0.29077229      -4.40454667 F F F
 Pd            13.62154887      21.37241675      18.52110955      -0.00027913       0.00011627       0.00131246      -0.03081619      -0.60578592       0.10256992      -4.09176003 F F F
 Pd            19.18291885      16.83635057      11.84575302       0.00089267      -0.00145946       0.00030261      -0.20973769      -0.78971749      -0.34534196      -3.64982105 F F F
 Pd            20.51237656      14.01031643      19.27564712      -0.00192473       0.00015282       0.00021939      -0.45130134      -0.25136710      -0.72870566      -4.56992503 F F F
