      25
 Properties=species:S:1:pos:R:3:velocities:R:3:forces:R:3:local_energy:R:1:fix_atoms:S:3 Lattice="18.2029650923       0.0000000000    0.0000000000    0.0000000000   17.4881963753    0.0000000000    0.0000000000    0.0000000000   17.7218525895" temperature=1077.96191829 pressure=-2239.69973843 time_step=1.0000 time=1000.000000 energy=-80.079418 energy_soap=-25.76116697  energy_2b=-34.39132261 energy_3b=0.00000000 energy_core_pot=0.00000000 energy_vdw=0.00000000 energy_exp=0.00000000 energy_xps=0.00000000 virial="-14.10447173          0.68716508     -3.74431197      0.68716508     -9.33742753     -0.23679406     -3.74431197     -0.23679406     -6.90532189" stress="0.00250012           -0.00012180      0.00066371     -0.00012180      0.00165513      0.00004197      0.00066371      0.00004197      0.00122402" volume=5641.521887 step=1000
 Au             4.33393367       9.59258570      10.81609065       0.00158074       0.00155803       0.00022436       0.75850203       0.03542944       0.31395171      -2.06223094 F F F
 Au             9.46934753       6.27406288       8.35447756       0.00156810       0.00140455      -0.00009500       0.29804679       0.46039706      -0.05547157      -3.23560560 F F F
 Au             9.30520121      11.40567675       9.11862136       0.00118331       0.00266809      -0.00179443      -0.35057305       0.87835266      -0.68718431      -2.68912033 F F F
 Au             8.59546608       6.20524381      11.81686153       0.00188912      -0.00012022      -0.00003418      -0.26587076       0.61615643      -0.40979229      -2.53121428 F F F
 Au            12.09836463       8.75968242       6.18837701       0.00042801      -0.00068116      -0.00046120      -0.87751017       0.01548390       0.56886044      -2.46395212 F F F
 Au            12.20808418       7.11029282       8.59081942      -0.00030044       0.00143416       0.00050500       0.24522240       0.36794545      -0.00975010      -2.72863053 F F F
 Au            12.25903270      10.00700679      10.11307034       0.00128224       0.00057624      -0.00353524      -0.19354906      -0.82793084       0.09020708      -2.62313913 F F F
 Au             9.72454933      10.38957902       5.71438305       0.00109145      -0.00105046       0.00118257       0.35594667      -0.16122367       0.81475710      -2.31777099 F F F
 Au            14.04317595       7.73334017      10.82520794       0.00319958      -0.00262010      -0.00019403      -1.40297016       0.37085960      -0.69952310      -1.54206452 F F F
 Au            10.89560852       7.49659032      10.90831432      -0.00202210       0.00375738       0.00454290      -0.04890503       0.53358578       0.11014500      -3.02608338 F F F
 Au             7.51958318       9.68229414       7.35205252      -0.00178037      -0.00246850       0.00023101       1.19946356       0.43392834      -0.52532185      -3.00824572 F F F
 Au             5.95307591       7.31799436      11.40849982      -0.00094587       0.00189726      -0.00181434      -0.39388770      -0.37427189      -0.42927555      -2.56955470 F F F
 Au             8.39834603       4.90357236       6.06158128      -0.00134867      -0.00015981      -0.00062096       0.41455680       1.06415951       0.41455274      -2.10496604 F F F
 Pd             6.73847067      10.80662137       9.87142175      -0.00300955      -0.00398046      -0.00247062       0.22322582      -0.09183281       0.46509294      -3.92294077 F F F
 Pd            10.19748956       9.15090086       8.31632598      -0.00542188       0.00215901       0.00331625       0.79386017      -1.13575423      -0.81956946      -4.69397060 F F F
 Pd             5.79872567       8.56641804       8.86757421       0.00155233      -0.00218685      -0.00149274      -0.87961024      -0.72995387       0.65110320      -3.97220142 F F F
 Pd            11.80280985      11.32105511       7.78300023      -0.00337537       0.00012568      -0.00057030      -0.61704161      -0.57187250      -0.20864259      -3.39196796 F F F
 Pd             8.27953211       8.54552340      10.00479348       0.00211013       0.00222172      -0.00092514      -0.15885736      -0.85425566       0.28970873      -4.94298246 F F F
 Pd             9.58201708       8.34081557      13.19853603       0.00007067      -0.00746958      -0.00508617       0.18138452      -0.11438940      -0.35326813      -3.42871770 F F F
 Pd             7.12291984       5.84693725       9.49594275      -0.00471880      -0.00100872      -0.00258164       0.07287946      -0.10373255       0.88676003      -3.66823953 F F F
 Pd             7.25776581       9.24639151      12.42031255      -0.00287242      -0.00048200       0.00581689       0.29546527       0.99909382      -0.31153433      -3.77280472 F F F
 Pd            11.17818041       6.07865907       6.27138866       0.00139470       0.00396361       0.00215306      -0.41867535       0.50375061       0.02188435      -3.49008200 F F F
 Pd             9.01068687       7.78719022       5.74936077       0.00001413      -0.00439926       0.00342204       0.38512964      -0.37901215       0.65379972      -4.00677037 F F F
 Pd             9.70195990      10.34064736      11.40466562       0.00188802      -0.00354053       0.00062890       0.06662226      -0.77326915       0.46209581      -3.97524787 F F F
 Pd             6.95940296       6.97166193       7.29129266       0.00237578       0.00396978       0.00098617       0.31714511      -0.16164388      -1.23358555      -3.91091385 F F F
