      55
 Properties=species:S:1:pos:R:3:velocities:R:3:forces:R:3:local_energy:R:1:fix_atoms:S:3 Lattice="17.9353561800       0.0000000000    0.0000000000    0.0000000000   17.9353561800    0.0000000000    0.0000000000    0.0000000000   17.9353561800" temperature=0.00000000 pressure=-0.46547410 time_step=1.0000 time=13.000000 energy=-212.436647 energy_soap=-50.87641097  energy_2b=-105.36734691 energy_3b=0.00000000 energy_core_pot=0.00000000 energy_vdw=0.00000000 energy_exp=0.00000000 energy_xps=0.00000000 virial="-0.00167615          -0.00000001      0.00000000     -0.00000001     -0.00167616     -0.00000000      0.00000000     -0.00000000     -0.00167616" stress="0.00000029            0.00000000     -0.00000000      0.00000000      0.00000029      0.00000000     -0.00000000      0.00000000      0.00000029" volume=5769.391593 step=13
 Pd             7.02256368       7.02256368       5.05114323       0.00000000       0.00000000       0.00000000       0.00007006       0.00007006       0.00003758      -4.13233295 F F F
 Pd             7.02256368       5.05114323       7.02256368       0.00000000       0.00000000       0.00000000       0.00007006       0.00003758       0.00007006      -4.13233295 F F F
 Pd             5.05114323       7.02256368       7.02256368       0.00000000       0.00000000       0.00000000       0.00003758       0.00007006       0.00007006      -4.13233295 F F F
 Pd             7.02256368       7.02256368      12.88421295       0.00000000       0.00000000       0.00000000       0.00007007       0.00007007      -0.00003760      -4.13233295 F F F
 Au             5.06684592       5.06684592       8.96767809       0.00000000       0.00000000       0.00000000       0.00002610       0.00002610      -0.00000000      -2.50993716 F F F
 Pd             7.01326225       7.01326225       8.96767809       0.00000000       0.00000000       0.00000000       0.00003453       0.00003453      -0.00000002      -5.00869078 F F F
 Pd             7.02256368       5.05114323      10.91279250       0.00000000       0.00000000       0.00000000       0.00007008       0.00003759      -0.00007005      -4.13233295 F F F
 Pd             5.05114323       7.02256368      10.91279250       0.00000000       0.00000000       0.00000000       0.00003759       0.00007008      -0.00007005      -4.13233295 F F F
 Pd             7.02256368      12.88421295       7.02256368       0.00000000       0.00000000       0.00000000       0.00007007      -0.00003760       0.00007007      -4.13233295 F F F
 Au             5.06684592       8.96767809       5.06684592       0.00000000       0.00000000       0.00000000       0.00002610      -0.00000000       0.00002610      -2.50993716 F F F
 Pd             7.02256368      10.91279250       5.05114323       0.00000000       0.00000000       0.00000000       0.00007008      -0.00007005       0.00003759      -4.13233295 F F F
 Pd             7.01326225       8.96767809       7.01326225       0.00000000       0.00000000       0.00000000       0.00003453      -0.00000002       0.00003453      -5.00869078 F F F
 Pd             5.05114323      10.91279250       7.02256368       0.00000000       0.00000000       0.00000000       0.00003759      -0.00007005       0.00007008      -4.13233295 F F F
 Au             5.06684593      12.86851025       8.96767809       0.00000000       0.00000000       0.00000000       0.00002612      -0.00002613      -0.00000000      -2.50993716 F F F
 Pd             7.02256368      12.88421295      10.91279250       0.00000000       0.00000000       0.00000000       0.00007008      -0.00003760      -0.00007006      -4.13233295 F F F
 Au             5.06684592       8.96767809      12.86851025       0.00000000       0.00000000       0.00000000       0.00002612      -0.00000000      -0.00002613      -2.50993716 F F F
 Pd             7.02256368      10.91279250      12.88421295       0.00000000       0.00000000       0.00000000       0.00007008      -0.00007006      -0.00003760      -4.13233295 F F F
 Au             4.87440712       8.96767809       8.96767809       0.00000000       0.00000000       0.00000000      -0.00037086       0.00000000       0.00000000      -3.24048220 F F F
 Pd             7.01326225      10.92209393       8.96767809       0.00000000       0.00000000       0.00000000       0.00003442      -0.00003444      -0.00000002      -5.00869078 F F F
 Pd             7.01326225       8.96767809      10.92209393       0.00000000       0.00000000       0.00000000       0.00003442      -0.00000002      -0.00003444      -5.00869078 F F F
 Pd             5.05114323      10.91279250      10.91279250       0.00000000       0.00000000       0.00000000       0.00003759      -0.00007007      -0.00007007      -4.13233295 F F F
 Pd            12.88421295       7.02256368       7.02256368       0.00000000       0.00000000       0.00000000      -0.00003760       0.00007007       0.00007007      -4.13233295 F F F
 Au             8.96767809       5.06684592       5.06684592       0.00000000       0.00000000       0.00000000      -0.00000000       0.00002610       0.00002610      -2.50993716 F F F
 Pd            10.91279250       7.02256368       5.05114323       0.00000000       0.00000000       0.00000000      -0.00007005       0.00007008       0.00003759      -4.13233295 F F F
 Pd            10.91279250       5.05114323       7.02256368       0.00000000       0.00000000       0.00000000      -0.00007005       0.00003759       0.00007008      -4.13233295 F F F
 Pd             8.96767809       7.01326225       7.01326225       0.00000000       0.00000000       0.00000000      -0.00000002       0.00003453       0.00003453      -5.00869078 F F F
 Au            12.86851025       5.06684592       8.96767809       0.00000000       0.00000000       0.00000000      -0.00002613       0.00002612      -0.00000000      -2.50993716 F F F
 Pd            12.88421295       7.02256368      10.91279250       0.00000000       0.00000000       0.00000000      -0.00003760       0.00007008      -0.00007006      -4.13233295 F F F
 Au             8.96767809       5.06684592      12.86851025       0.00000000       0.00000000       0.00000000      -0.00000000       0.00002612      -0.00002613      -2.50993716 F F F
 Pd            10.91279250       7.02256368      12.88421295       0.00000000       0.00000000       0.00000000      -0.00007006       0.00007008      -0.00003760      -4.13233295 F F F
 Au             8.96767809       4.87440712       8.96767809       0.00000000       0.00000000       0.00000000       0.00000000      -0.00037086       0.00000000      -3.24048220 F F F
 Pd            10.92209393       7.01326225       8.96767809       0.00000000       0.00000000       0.00000000      -0.00003445       0.00003443      -0.00000002      -5.00869078 F F F
 Pd            10.91279250       5.05114323      10.91279250       0.00000000       0.00000000       0.00000000      -0.00007007       0.00003759      -0.00007007      -4.13233295 F F F
 Pd             8.96767809       7.01326225      10.92209393       0.00000000       0.00000000       0.00000000      -0.00000002       0.00003442      -0.00003444      -5.00869078 F F F
 Au            12.86851025       8.96767809       5.06684592       0.00000000       0.00000000       0.00000000      -0.00002613      -0.00000000       0.00002612      -2.50993716 F F F
 Pd            12.88421295      10.91279250       7.02256368       0.00000000       0.00000000       0.00000000      -0.00003760      -0.00007006       0.00007008      -4.13233295 F F F
 Au             8.96767809      12.86851025       5.06684592       0.00000000       0.00000000       0.00000000      -0.00000000      -0.00002613       0.00002612      -2.50993716 F F F
 Pd            10.91279250      12.88421295       7.02256368       0.00000000       0.00000000       0.00000000      -0.00007006      -0.00003760       0.00007008      -4.13233295 F F F
 Au             8.96767809       8.96767809       4.87440712       0.00000000       0.00000000       0.00000000       0.00000000       0.00000000      -0.00037086      -3.24048220 F F F
 Pd            10.91279250      10.91279250       5.05114323       0.00000000       0.00000000       0.00000000      -0.00007007      -0.00007007       0.00003759      -4.13233295 F F F
 Pd            10.92209393       8.96767809       7.01326225       0.00000000       0.00000000       0.00000000      -0.00003445      -0.00000002       0.00003443      -5.00869078 F F F
 Pd             8.96767809      10.92209393       7.01326225       0.00000000       0.00000000       0.00000000      -0.00000002      -0.00003445       0.00003443      -5.00869078 F F F
 Au            12.86851025      12.86851025       8.96767809       0.00000000       0.00000000       0.00000000      -0.00002615      -0.00002615      -0.00000000      -2.50993716 F F F
 Au            12.86851025       8.96767809      12.86851025       0.00000000       0.00000000       0.00000000      -0.00002615      -0.00000000      -0.00002615      -2.50993716 F F F
 Au            13.06094906       8.96767809       8.96767809       0.00000000       0.00000000       0.00000000       0.00037087       0.00000000       0.00000000      -3.24048220 F F F
 Pd            12.88421295      10.91279250      10.91279250       0.00000000       0.00000000       0.00000000      -0.00003761      -0.00007007      -0.00007007      -4.13233295 F F F
 Au             8.96767809      12.86851025      12.86851025       0.00000000       0.00000000       0.00000000      -0.00000000      -0.00002615      -0.00002615      -2.50993716 F F F
 Au             8.96767809      13.06094906       8.96767809       0.00000000       0.00000000       0.00000000       0.00000000       0.00037087       0.00000000      -3.24048220 F F F
 Pd            10.91279250      12.88421295      10.91279250       0.00000000       0.00000000       0.00000000      -0.00007007      -0.00003761      -0.00007007      -4.13233295 F F F
 Au             8.96767809       8.96767809      13.06094906       0.00000000       0.00000000       0.00000000       0.00000000       0.00000000       0.00037087      -3.24048220 F F F
 Pd            10.91279250      10.91279250      12.88421295       0.00000000       0.00000000       0.00000000      -0.00007007      -0.00007007      -0.00003761      -4.13233295 F F F
 Au             8.96767809       8.96767809       8.96767809       0.00000000       0.00000000       0.00000000      -0.00000016      -0.00000017      -0.00000017      -3.59422781 F F F
 Pd            10.92209392      10.92209392       8.96767809       0.00000000       0.00000000       0.00000000      -0.00003434      -0.00003434      -0.00000002      -5.00869077 F F F
 Pd            10.92209392       8.96767809      10.92209392       0.00000000       0.00000000       0.00000000      -0.00003434      -0.00000002      -0.00003434      -5.00869077 F F F
 Pd             8.96767809      10.92209392      10.92209392       0.00000000       0.00000000       0.00000000      -0.00000002      -0.00003434      -0.00003434      -5.00869077 F F F
