      55
 Properties=species:S:1:pos:R:3:velocities:R:3:forces:R:3:local_energy:R:1:fix_atoms:S:3 Lattice="21.3561349059       0.0000000000    0.0000000000    0.0000000000   21.3561349059    0.0000000000    0.0000000000    0.0000000000   18.0300000000" temperature=0.00000000 pressure=1.22152732 time_step=1.0000 time=23.000000 energy=-200.751676 energy_soap=-46.84042089  energy_2b=-104.15255781 energy_3b=0.00000000 energy_core_pot=0.00000000 energy_vdw=0.00000000 energy_exp=0.00000000 energy_xps=0.00000000 virial="0.13111217           -0.00000000     -0.00000000     -0.00000000      0.13111218      0.00000000     -0.00000000      0.00000000     -0.24341581" stress="-0.00001594           0.00000000      0.00000000      0.00000000     -0.00001594     -0.00000000      0.00000000     -0.00000000      0.00002960" volume=8223.203501 step=23
 Au             9.26173360       9.26173360       7.10058737       0.00000000       0.00000000       0.00000000      -0.00085372      -0.00085372       0.00186276      -3.49232373 F F F
 Pd             7.93250688       7.93250688       5.18242872       0.00000000       0.00000000       0.00000000      -0.00041830      -0.00041830       0.00238750      -3.58113438 F F F
 Au             9.23214128       6.38819875       7.05021395       0.00000000       0.00000000       0.00000000      -0.00020234      -0.00142722       0.00103839      -2.90405738 F F F
 Au             6.38819875       9.23214128       7.05021395       0.00000000       0.00000000       0.00000000      -0.00142722      -0.00020234       0.00103839      -2.90405738 F F F
 Pd             7.93250688       7.93250688      12.84757128       0.00000000       0.00000000       0.00000000      -0.00041825      -0.00041825      -0.00238759      -3.58113438 F F F
 Au             9.26173361       9.26173361      10.92941262       0.00000000       0.00000000       0.00000000      -0.00085391      -0.00085392      -0.00186255      -3.49232373 F F F
 Pd             7.78697511       7.78697511       9.01500000       0.00000000       0.00000000       0.00000000      -0.00129706      -0.00129706       0.00000001      -4.36796367 F F F
 Au             9.23214128       6.38819875      10.97978605       0.00000000       0.00000000       0.00000000      -0.00020236      -0.00142718      -0.00103837      -2.90405739 F F F
 Au             6.38819875       9.23214128      10.97978605       0.00000000       0.00000000       0.00000000      -0.00142718      -0.00020236      -0.00103837      -2.90405739 F F F
 Au             9.23214128      14.96793615       7.05021395       0.00000000       0.00000000       0.00000000      -0.00020234       0.00142722       0.00103839      -2.90405738 F F F
 Pd             7.93250688      13.42362803       5.18242872       0.00000000       0.00000000       0.00000000      -0.00041830       0.00041829       0.00238751      -3.58113438 F F F
 Au             9.26173360      12.09440131       7.10058737       0.00000000       0.00000000       0.00000000      -0.00085374       0.00085372       0.00186274      -3.49232373 F F F
 Pd             7.92575648      10.67806745       5.11037711       0.00000000       0.00000000       0.00000000      -0.00052304       0.00000000       0.00271449      -4.08210912 F F F
 Au             6.38819875      12.12399363       7.05021395       0.00000000       0.00000000       0.00000000      -0.00142722       0.00020234       0.00103839      -2.90405739 F F F
 Pd             7.93250687      13.42362803      12.84757129       0.00000000       0.00000000       0.00000000      -0.00041824       0.00041824      -0.00238760      -3.58113438 F F F
 Au             9.23214128      14.96793615      10.97978605       0.00000000       0.00000000       0.00000000      -0.00020236       0.00142718      -0.00103837      -2.90405739 F F F
 Pd             7.78697511      13.56915980       9.01500000       0.00000000       0.00000000       0.00000000      -0.00129706       0.00129706       0.00000001      -4.36796367 F F F
 Pd             7.92575648      10.67806745      12.91962289       0.00000000       0.00000000       0.00000000      -0.00052302       0.00000001      -0.00271453      -4.08210912 F F F
 Au             9.26173361      12.09440130      10.92941262       0.00000000       0.00000000       0.00000000      -0.00085394       0.00085392      -0.00186253      -3.49232373 F F F
 Pd             7.82785877      10.67806745       9.01500000       0.00000000       0.00000000       0.00000000      -0.00247452      -0.00000000      -0.00000005      -4.89607619 F F F
 Au             6.38819875      12.12399363      10.97978605       0.00000000       0.00000000       0.00000000      -0.00142718       0.00020237      -0.00103837      -2.90405739 F F F
 Pd             5.13127342      10.67806745       9.01500000       0.00000000       0.00000000       0.00000000      -0.00234967      -0.00000000      -0.00000001      -3.56308039 F F F
 Au            14.96793615       9.23214128       7.05021395       0.00000000       0.00000000       0.00000000       0.00142722      -0.00020234       0.00103839      -2.90405738 F F F
 Pd            13.42362803       7.93250688       5.18242872       0.00000000       0.00000000       0.00000000       0.00041830      -0.00041830       0.00238751      -3.58113438 F F F
 Au            12.09440131       9.26173360       7.10058737       0.00000000       0.00000000       0.00000000       0.00085372      -0.00085374       0.00186274      -3.49232373 F F F
 Pd            10.67806745       7.92575648       5.11037711       0.00000000       0.00000000       0.00000000       0.00000000      -0.00052304       0.00271449      -4.08210912 F F F
 Au            12.12399363       6.38819875       7.05021395       0.00000000       0.00000000       0.00000000       0.00020234      -0.00142722       0.00103839      -2.90405739 F F F
 Pd            13.42362803       7.93250688      12.84757129       0.00000000       0.00000000       0.00000000       0.00041824      -0.00041824      -0.00238760      -3.58113438 F F F
 Au            14.96793615       9.23214128      10.97978605       0.00000000       0.00000000       0.00000000       0.00142718      -0.00020236      -0.00103837      -2.90405739 F F F
 Pd            13.56915980       7.78697511       9.01500000       0.00000000       0.00000000       0.00000000       0.00129706      -0.00129706       0.00000001      -4.36796367 F F F
 Pd            10.67806745       7.92575648      12.91962289       0.00000000       0.00000000       0.00000000       0.00000000      -0.00052302      -0.00271453      -4.08210912 F F F
 Au            12.09440130       9.26173361      10.92941262       0.00000000       0.00000000       0.00000000       0.00085391      -0.00085393      -0.00186253      -3.49232373 F F F
 Pd            10.67806745       7.82785877       9.01500000       0.00000000       0.00000000       0.00000000      -0.00000000      -0.00247451      -0.00000005      -4.89607619 F F F
 Au            12.12399362       6.38819875      10.97978605       0.00000000       0.00000000       0.00000000       0.00020237      -0.00142718      -0.00103836      -2.90405739 F F F
 Pd            10.67806745       5.13127342       9.01500000       0.00000000       0.00000000       0.00000000      -0.00000000      -0.00234967      -0.00000001      -3.56308039 F F F
 Pd            13.42362803      13.42362803       5.18242872       0.00000000       0.00000000       0.00000000       0.00041829       0.00041829       0.00238752      -3.58113438 F F F
 Au            14.96793615      12.12399363       7.05021395       0.00000000       0.00000000       0.00000000       0.00142722       0.00020234       0.00103839      -2.90405739 F F F
 Pd            13.43037843      10.67806745       5.11037711       0.00000000       0.00000000       0.00000000       0.00052304       0.00000000       0.00271449      -4.08210912 F F F
 Au            12.12399363      14.96793615       7.05021395       0.00000000       0.00000000       0.00000000       0.00020234       0.00142722       0.00103839      -2.90405739 F F F
 Pd            10.67806745      13.43037843       5.11037711       0.00000000       0.00000000       0.00000000       0.00000000       0.00052304       0.00271449      -4.08210912 F F F
 Au            12.09440131      12.09440131       7.10058738       0.00000000       0.00000000       0.00000000       0.00085375       0.00085374       0.00186272      -3.49232373 F F F
 Pd            10.67806745      10.67806745       5.03844859       0.00000000       0.00000000       0.00000000       0.00000000      -0.00000000       0.00304902      -4.40293137 F F F
 Pd            16.22486149      10.67806745       9.01500000       0.00000000       0.00000000       0.00000000       0.00234966      -0.00000000      -0.00000001      -3.56308039 F F F
 Pd            13.42362803      13.42362803      12.84757129       0.00000000       0.00000000       0.00000000       0.00041824       0.00041824      -0.00238761      -3.58113438 F F F
 Pd            13.56915980      13.56915980       9.01500000       0.00000000       0.00000000       0.00000000       0.00129706       0.00129706       0.00000001      -4.36796367 F F F
 Pd            13.43037843      10.67806745      12.91962289       0.00000000       0.00000000       0.00000000       0.00052302       0.00000000      -0.00271453      -4.08210912 F F F
 Au            14.96793615      12.12399362      10.97978605       0.00000000       0.00000000       0.00000000       0.00142718       0.00020237      -0.00103837      -2.90405739 F F F
 Pd            13.52827613      10.67806745       9.01500000       0.00000000       0.00000000       0.00000000       0.00247454      -0.00000000      -0.00000005      -4.89607619 F F F
 Pd            10.67806745      16.22486149       9.01500000       0.00000000       0.00000000       0.00000000      -0.00000000       0.00234966      -0.00000001      -3.56308039 F F F
 Pd            10.67806745      13.43037843      12.91962289       0.00000000       0.00000000       0.00000000       0.00000000       0.00052302      -0.00271453      -4.08210912 F F F
 Au            12.12399363      14.96793615      10.97978605       0.00000000       0.00000000       0.00000000       0.00020236       0.00142718      -0.00103837      -2.90405739 F F F
 Pd            10.67806745      13.52827613       9.01500000       0.00000000       0.00000000       0.00000000      -0.00000000       0.00247455      -0.00000005      -4.89607619 F F F
 Pd            10.67806745      10.67806745      12.99155141       0.00000000       0.00000000       0.00000000       0.00000000       0.00000000      -0.00304899      -4.40293137 F F F
 Au            12.09440130      12.09440130      10.92941262       0.00000000       0.00000000       0.00000000       0.00085394       0.00085394      -0.00186251      -3.49232373 F F F
 Pd            10.67806745      10.67806745       9.01500001       0.00000000       0.00000000       0.00000000      -0.00000002      -0.00000003      -0.00000033      -4.92787664 F F F
