      55
 Properties=species:S:1:pos:R:3:velocities:R:3:forces:R:3:local_energy:R:1:fix_atoms:S:3 Lattice="18.1421651800       0.0000000000    0.0000000000    0.0000000000   18.1421651800    0.0000000000    0.0000000000    0.0000000000   18.1421651800" temperature=0.00000000 pressure=-12.08019975 time_step=1.0000 time=9.000000 energy=-179.862100 energy_soap=-50.07202911  energy_2b=-95.47343264 energy_3b=0.00000000 energy_core_pot=0.00000000 energy_vdw=0.00000000 energy_exp=0.00000000 energy_xps=0.00000000 virial="-0.04502265          -0.00000000      0.00000000     -0.00000000     -0.04502265      0.00000000      0.00000000      0.00000000     -0.04502265" stress="0.00000754            0.00000000     -0.00000000      0.00000000      0.00000754     -0.00000000     -0.00000000     -0.00000000      0.00000754" volume=5971.278819 step=9
 Au             7.06569385       7.06569385       4.99681851       0.00000000       0.00000000       0.00000000      -0.00014724      -0.00014723       0.00011969      -2.78925773 F F F
 Au             7.06569385       4.99681851       7.06569385       0.00000000       0.00000000       0.00000000      -0.00014724       0.00011969      -0.00014723      -2.78925773 F F F
 Au             4.99681851       7.06569385       7.06569385       0.00000000       0.00000000       0.00000000       0.00011969      -0.00014723      -0.00014723      -2.78925773 F F F
 Au             7.06569385       7.06569385      13.14534666       0.00000000       0.00000000       0.00000000      -0.00014725      -0.00014725      -0.00011967      -2.78925773 F F F
 Au             7.06634117       7.06634117       9.07108259       0.00000000       0.00000000       0.00000000       0.00148932       0.00148932       0.00000005      -3.35521240 F F F
 Au             7.06569385       4.99681851      11.07647133       0.00000000       0.00000000       0.00000000      -0.00014726       0.00011970       0.00014720      -2.78925773 F F F
 Au             4.99681851       7.06569385      11.07647133       0.00000000       0.00000000       0.00000000       0.00011970      -0.00014726       0.00014720      -2.78925773 F F F
 Pd             5.16297120       5.16297120       9.07108259       0.00000000       0.00000000       0.00000000       0.00059531       0.00059531       0.00000002      -3.51965852 F F F
 Au             7.06569385      13.14534666       7.06569385       0.00000000       0.00000000       0.00000000      -0.00014724      -0.00011967      -0.00014725      -2.78925773 F F F
 Au             7.06569385      11.07647133       4.99681851       0.00000000       0.00000000       0.00000000      -0.00014726       0.00014720       0.00011970      -2.78925773 F F F
 Au             7.06634117       9.07108259       7.06634117       0.00000000       0.00000000       0.00000000       0.00148932       0.00000005       0.00148932      -3.35521240 F F F
 Au             4.99681851      11.07647133       7.06569385       0.00000000       0.00000000       0.00000000       0.00011970       0.00014720      -0.00014726      -2.78925773 F F F
 Pd             5.16297120       9.07108259       5.16297120       0.00000000       0.00000000       0.00000000       0.00059531       0.00000002       0.00059531      -3.51965852 F F F
 Au             7.06569385      13.14534666      11.07647133       0.00000000       0.00000000       0.00000000      -0.00014728      -0.00011967       0.00014721      -2.78925773 F F F
 Pd             5.16297120      12.97919397       9.07108259       0.00000000       0.00000000       0.00000000       0.00059526      -0.00059525       0.00000002      -3.51965852 F F F
 Au             7.06569385      11.07647133      13.14534666       0.00000000       0.00000000       0.00000000      -0.00014728       0.00014721      -0.00011967      -2.78925773 F F F
 Pd             5.16297120       9.07108259      12.97919397       0.00000000       0.00000000       0.00000000       0.00059526       0.00000002      -0.00059525      -3.51965852 F F F
 Au             7.06634116      11.07582401       9.07108259       0.00000000       0.00000000       0.00000000       0.00148943      -0.00148944       0.00000006      -3.35521240 F F F
 Au             7.06634116       9.07108258      11.07582401       0.00000000       0.00000000       0.00000000       0.00148943       0.00000006      -0.00148944      -3.35521240 F F F
 Au             4.99681851      11.07647133      11.07647133       0.00000000       0.00000000       0.00000000       0.00011970       0.00014723       0.00014723      -2.78925773 F F F
 Pd             4.98415680       9.07108259       9.07108259       0.00000000       0.00000000       0.00000000       0.00040959       0.00000000       0.00000000      -4.26565150 F F F
 Au            13.14534666       7.06569385       7.06569385       0.00000000       0.00000000       0.00000000      -0.00011967      -0.00014724      -0.00014725      -2.78925773 F F F
 Au            11.07647133       7.06569385       4.99681851       0.00000000       0.00000000       0.00000000       0.00014721      -0.00014726       0.00011970      -2.78925773 F F F
 Au            11.07647133       4.99681851       7.06569385       0.00000000       0.00000000       0.00000000       0.00014720       0.00011970      -0.00014726      -2.78925773 F F F
 Au             9.07108259       7.06634117       7.06634117       0.00000000       0.00000000       0.00000000       0.00000005       0.00148932       0.00148932      -3.35521240 F F F
 Pd             9.07108259       5.16297120       5.16297120       0.00000000       0.00000000       0.00000000       0.00000002       0.00059531       0.00059531      -3.51965852 F F F
 Au            13.14534666       7.06569385      11.07647133       0.00000000       0.00000000       0.00000000      -0.00011967      -0.00014728       0.00014721      -2.78925773 F F F
 Pd            12.97919397       5.16297120       9.07108259       0.00000000       0.00000000       0.00000000      -0.00059525       0.00059526       0.00000002      -3.51965852 F F F
 Au            11.07647133       7.06569385      13.14534666       0.00000000       0.00000000       0.00000000       0.00014721      -0.00014727      -0.00011967      -2.78925773 F F F
 Pd             9.07108259       5.16297120      12.97919397       0.00000000       0.00000000       0.00000000       0.00000002       0.00059526      -0.00059525      -3.51965852 F F F
 Au            11.07582401       7.06634116       9.07108259       0.00000000       0.00000000       0.00000000      -0.00148944       0.00148943       0.00000006      -3.35521240 F F F
 Au            11.07647133       4.99681851      11.07647133       0.00000000       0.00000000       0.00000000       0.00014723       0.00011970       0.00014723      -2.78925773 F F F
 Au             9.07108258       7.06634116      11.07582401       0.00000000       0.00000000       0.00000000       0.00000006       0.00148943      -0.00148944      -3.35521240 F F F
 Pd             9.07108259       4.98415680       9.07108259       0.00000000       0.00000000       0.00000000       0.00000000       0.00040959       0.00000000      -4.26565150 F F F
 Au            13.14534666      11.07647133       7.06569385       0.00000000       0.00000000       0.00000000      -0.00011967       0.00014721      -0.00014727      -2.78925773 F F F
 Pd            12.97919397       9.07108259       5.16297120       0.00000000       0.00000000       0.00000000      -0.00059525       0.00000002       0.00059526      -3.51965852 F F F
 Au            11.07647133      13.14534666       7.06569385       0.00000000       0.00000000       0.00000000       0.00014721      -0.00011967      -0.00014728      -2.78925773 F F F
 Pd             9.07108259      12.97919397       5.16297120       0.00000000       0.00000000       0.00000000       0.00000002      -0.00059525       0.00059526      -3.51965852 F F F
 Au            11.07647133      11.07647133       4.99681851       0.00000000       0.00000000       0.00000000       0.00014723       0.00014723       0.00011970      -2.78925773 F F F
 Au            11.07582401       9.07108259       7.06634116       0.00000000       0.00000000       0.00000000      -0.00148944       0.00000005       0.00148943      -3.35521240 F F F
 Au             9.07108259      11.07582401       7.06634116       0.00000000       0.00000000       0.00000000       0.00000006      -0.00148944       0.00148943      -3.35521240 F F F
 Pd             9.07108259       9.07108259       4.98415680       0.00000000       0.00000000       0.00000000       0.00000000       0.00000000       0.00040959      -4.26565150 F F F
 Pd            12.97919397      12.97919397       9.07108259       0.00000000       0.00000000       0.00000000      -0.00059521      -0.00059521       0.00000002      -3.51965852 F F F
 Pd            12.97919397       9.07108259      12.97919397       0.00000000       0.00000000       0.00000000      -0.00059521       0.00000002      -0.00059521      -3.51965852 F F F
 Au            13.14534666      11.07647133      11.07647133       0.00000000       0.00000000       0.00000000      -0.00011967       0.00014724       0.00014724      -2.78925773 F F F
 Pd            13.15800837       9.07108259       9.07108259       0.00000000       0.00000000       0.00000000      -0.00040959       0.00000000       0.00000000      -4.26565151 F F F
 Pd             9.07108259      12.97919397      12.97919397       0.00000000       0.00000000       0.00000000       0.00000002      -0.00059520      -0.00059520      -3.51965852 F F F
 Au            11.07647133      13.14534666      11.07647133       0.00000000       0.00000000       0.00000000       0.00014724      -0.00011967       0.00014724      -2.78925774 F F F
 Pd             9.07108259      13.15800837       9.07108259       0.00000000       0.00000000       0.00000000       0.00000000      -0.00040959       0.00000000      -4.26565151 F F F
 Au            11.07647133      11.07647133      13.14534666       0.00000000       0.00000000       0.00000000       0.00014724       0.00014724      -0.00011967      -2.78925773 F F F
 Pd             9.07108259       9.07108259      13.15800837       0.00000000       0.00000000       0.00000000       0.00000000       0.00000000      -0.00040959      -4.26565151 F F F
 Au            11.07582402      11.07582402       9.07108258       0.00000000       0.00000000       0.00000000      -0.00148955      -0.00148955       0.00000006      -3.35521240 F F F
 Au            11.07582402       9.07108259      11.07582402       0.00000000       0.00000000       0.00000000      -0.00148955       0.00000006      -0.00148955      -3.35521240 F F F
 Au             9.07108259      11.07582402      11.07582402       0.00000000       0.00000000       0.00000000       0.00000006      -0.00148955      -0.00148955      -3.35521240 F F F
 Pd             9.07108258       9.07108258       9.07108258       0.00000000       0.00000000       0.00000000       0.00000010       0.00000011       0.00000011      -4.82755425 F F F
