      55
 Properties=species:S:1:pos:R:3:velocities:R:3:forces:R:3:local_energy:R:1:fix_atoms:S:3 Lattice="18.1421651800       0.0000000000    0.0000000000    0.0000000000   18.1421651800    0.0000000000    0.0000000000    0.0000000000   18.1421651800" temperature=0.00000000 pressure=-7.28601547 time_step=1.0000 time=13.000000 energy=-181.493103 energy_soap=-55.30292104  energy_2b=-91.87354372 energy_3b=0.00000000 energy_core_pot=0.00000000 energy_vdw=0.00000000 energy_exp=0.00000000 energy_xps=0.00000000 virial="0.01718419            0.11389449     -0.02143934      0.11389449     -0.02885917     -0.02148621     -0.02143934     -0.02148621     -0.06978950" stress="-0.00000288          -0.00001907      0.00000359     -0.00001907      0.00000483      0.00000360      0.00000359      0.00000360      0.00001169" volume=5971.278819 step=13
 Pd             7.08670029       7.11780903       5.10405466       0.00000000       0.00000000       0.00000000      -0.00031254       0.00336386      -0.00031238      -4.03122423 F F F
 Pd             7.09040843       5.10909365       7.09887106       0.00000000       0.00000000       0.00000000       0.00180172       0.00128207       0.00228528      -4.00549407 F F F
 Pd             5.09213688       7.10068705       7.08404306       0.00000000       0.00000000       0.00000000       0.00061683      -0.00089049      -0.00020388      -4.07585257 F F F
 Au             7.06508730       7.06037139      13.12469536       0.00000000       0.00000000       0.00000000      -0.00152541       0.00180690      -0.00040061      -2.69355669 F F F
 Au             7.04622041       7.06699940       9.06248033       0.00000000       0.00000000       0.00000000      -0.00021545      -0.00196974       0.00155313      -3.33333434 F F F
 Au             7.04321770       5.00034348      11.08953809       0.00000000       0.00000000       0.00000000      -0.00543129      -0.00092894       0.00173665      -2.69233773 F F F
 Au             4.98669653       7.06741290      11.06656967       0.00000000       0.00000000       0.00000000      -0.00323186      -0.00125273       0.00030379      -2.67841453 F F F
 Au             5.09427460       5.13192035       9.04531197       0.00000000       0.00000000       0.00000000      -0.00445056       0.00061306      -0.00060394      -2.32135522 F F F
 Pd             7.10515854      13.00977995       7.11346139       0.00000000       0.00000000       0.00000000       0.00416493      -0.00277155      -0.00071902      -4.15412577 F F F
 Pd             7.10007169      11.04056905       5.09501587       0.00000000       0.00000000       0.00000000       0.00255430      -0.00474765      -0.00005295      -4.06724317 F F F
 Au             7.06301852       9.08744597       7.08555833       0.00000000       0.00000000       0.00000000       0.00117526      -0.00114140       0.00167903      -3.44134181 F F F
 Pd             5.13293503      11.05393588       7.12709945       0.00000000       0.00000000       0.00000000       0.00256779      -0.00137372       0.00303916      -4.14790611 F F F
 Au             5.10528597       9.08678961       5.14411313       0.00000000       0.00000000       0.00000000      -0.00227310       0.00066854       0.00308242      -2.43920303 F F F
 Au             7.09595759      13.10668186      11.01630063       0.00000000       0.00000000       0.00000000       0.00004113      -0.00141906       0.00195395      -2.86195961 F F F
 Pd             5.22966749      12.94730735       9.03091320       0.00000000       0.00000000       0.00000000       0.00590426       0.00260398      -0.00266225      -3.63443239 F F F
 Au             7.06010709      11.09585861      13.09209630       0.00000000       0.00000000       0.00000000      -0.00137028      -0.00074974      -0.00128730      -2.67360198 F F F
 Au             5.11073107       9.07830175      12.98448411       0.00000000       0.00000000       0.00000000      -0.00419553       0.00180988      -0.00428620      -2.17463007 F F F
 Pd             7.09881606      11.05619421       9.07625353       0.00000000       0.00000000       0.00000000       0.00252303      -0.00211790       0.00144658      -4.93485151 F F F
 Au             7.07116833       9.09411525      11.04943441       0.00000000       0.00000000       0.00000000      -0.00007036      -0.00176045       0.00010682      -3.34632774 F F F
 Au             5.00440511      11.07844377      11.00685815       0.00000000       0.00000000       0.00000000      -0.00063310      -0.00028296      -0.00599789      -2.80807348 F F F
 Pd             5.02707122       9.07985833       9.05013832       0.00000000       0.00000000       0.00000000       0.00024014      -0.00408488       0.00013961      -4.34019365 F F F
 Au            13.08815559       7.10335557       7.13104216       0.00000000       0.00000000       0.00000000      -0.00101109       0.00208799       0.00377849      -2.87493264 F F F
 Au            11.07710672       7.08683671       5.02221575       0.00000000       0.00000000       0.00000000       0.00329208      -0.00108511       0.00254914      -2.68493042 F F F
 Au            11.07619855       5.03548036       7.09047890       0.00000000       0.00000000       0.00000000      -0.00510776       0.00006647       0.00042770      -2.77421279 F F F
 Au             9.07653037       7.08475739       7.07619533       0.00000000       0.00000000       0.00000000      -0.00025296       0.00026901       0.00077103      -3.39131194 F F F
 Au             9.04391974       5.14270186       5.12455404       0.00000000       0.00000000       0.00000000      -0.00208421       0.00456175      -0.00396236      -2.31671392 F F F
 Au            13.11882838       7.07524323      11.01060203       0.00000000       0.00000000       0.00000000       0.00218307       0.00159163      -0.00766847      -2.82501300 F F F
 Pd            12.96807958       5.17943031       9.05680637       0.00000000       0.00000000       0.00000000      -0.00343322      -0.00355976      -0.00276540      -3.54780694 F F F
 Au            11.08028927       7.04591403      13.13874993       0.00000000       0.00000000       0.00000000      -0.00002334       0.00005931      -0.00139875      -2.68426051 F F F
 Pd             9.06689669       5.16834377      12.95883853       0.00000000       0.00000000       0.00000000      -0.00233470      -0.00088269      -0.00106442      -3.47415410 F F F
 Pd            11.05503614       7.06051942       9.06821040       0.00000000       0.00000000       0.00000000      -0.00082371       0.00000291       0.00065516      -4.83674611 F F F
 Au            11.09001362       5.02212566      11.05403136       0.00000000       0.00000000       0.00000000       0.00269875       0.00140482       0.00271182      -2.80992565 F F F
 Au             9.07810525       7.04686207      11.06442628       0.00000000       0.00000000       0.00000000      -0.00097389      -0.00088173       0.00076451      -3.29192258 F F F
 Au             9.07605941       4.89393160       9.07489600       0.00000000       0.00000000       0.00000000       0.00027936      -0.00021108       0.00515342      -2.96787872 F F F
 Au            13.07856940      11.11399746       7.03725925       0.00000000       0.00000000       0.00000000      -0.00190634       0.00577195      -0.00279567      -2.84131766 F F F
 Au            12.98620494       9.09792753       5.16608413       0.00000000       0.00000000       0.00000000      -0.00022602       0.00241716       0.00156585      -2.35079465 F F F
 Pd            11.01867779      13.06674369       7.11384900       0.00000000       0.00000000       0.00000000      -0.00434123       0.00123904       0.00245523      -4.07823114 F F F
 Au             9.06280547      13.02694818       5.13684329       0.00000000       0.00000000       0.00000000      -0.00036855      -0.00142654      -0.00232772      -2.44070184 F F F
 Pd            11.03202787      11.05856085       5.10510866       0.00000000       0.00000000       0.00000000      -0.00145533       0.00057157      -0.00138413      -4.04583780 F F F
 Pd            11.06257647       9.07260286       7.08247956       0.00000000       0.00000000       0.00000000       0.00069279       0.00099516       0.00074945      -4.85657576 F F F
 Au             9.07268327      11.05992925       7.07516163       0.00000000       0.00000000       0.00000000       0.00127666      -0.00170599      -0.00027673      -3.47768527 F F F
 Au             9.07662388       9.08764534       4.92160273       0.00000000       0.00000000       0.00000000       0.00374063      -0.00352576      -0.00073776      -3.09013026 F F F
 Au            13.01315418      13.02596303       9.06335466       0.00000000       0.00000000       0.00000000      -0.00021359       0.00198389      -0.00037679      -2.33508682 F F F
 Au            13.02584215       9.06590458      12.99461367       0.00000000       0.00000000       0.00000000       0.00345733      -0.00149191      -0.00388408      -2.17588387 F F F
 Au            13.14187692      11.10885336      11.08702971       0.00000000       0.00000000       0.00000000       0.00134157       0.00330554       0.00106917      -2.73114631 F F F
 Pd            13.10518161       9.10466845       9.06118937       0.00000000       0.00000000       0.00000000       0.00033532       0.00664050      -0.00080985      -4.28158150 F F F
 Au             9.08783979      13.01805164      12.95637613       0.00000000       0.00000000       0.00000000       0.00169848      -0.00139159       0.00048147      -2.34472151 F F F
 Pd            11.04240540      13.04330862      11.01830730       0.00000000       0.00000000       0.00000000      -0.00011119       0.00018591      -0.00075701      -4.04329818 F F F
 Pd             9.04821912      13.07800622       9.06667998       0.00000000       0.00000000       0.00000000      -0.00137178      -0.00100398       0.00291201      -4.41607935 F F F
 Au            11.08784677      11.10547681      13.08785189       0.00000000       0.00000000       0.00000000       0.00231811      -0.00090031      -0.00012523      -2.74024628 F F F
 Au             9.07442531       9.08871042      13.23618606       0.00000000       0.00000000       0.00000000       0.00045728      -0.00024732      -0.00014450      -2.89010083 F F F
 Au            11.05566870      11.07511653       9.07278517       0.00000000       0.00000000       0.00000000       0.00025452       0.00096663       0.00058632      -3.45473753 F F F
 Au            11.07512468       9.06505033      11.05483874       0.00000000       0.00000000       0.00000000       0.00131201      -0.00009882       0.00007631      -3.33933845 F F F
 Pd             9.07079513      11.05925114      11.07736101       0.00000000       0.00000000       0.00000000       0.00110175      -0.00173645       0.00198895      -4.85572185 F F F
 Au             9.08663833       9.07140523       9.07624228       0.00000000       0.00000000       0.00000000       0.00171927      -0.00062929       0.00098283      -3.36861707 F F F
