      79
 Properties=species:S:1:pos:R:3:velocities:R:3:forces:R:3:local_energy:R:1:fix_atoms:S:3 Lattice="35.3561349059       0.0000000000    0.0000000000    0.0000000000   35.3561349059    0.0000000000    0.0000000000    0.0000000000   36.0450000000" temperature=0.00000000 pressure=-6.50582379 time_step=1.0000 time=14.000000 energy=-289.366997 energy_soap=-76.45145793  energy_2b=-148.55666130 energy_3b=0.00000000 energy_core_pot=0.00000000 energy_vdw=0.00000000 energy_exp=0.00000000 energy_xps=0.00000000 virial="0.03014897            0.07283713     -0.16464549      0.07283713     -0.31073018     -0.11444520     -0.16464549     -0.11444520     -0.26831187" stress="-0.00000067          -0.00000162      0.00000365     -0.00000162      0.00000690      0.00000254      0.00000365      0.00000254      0.00000595" volume=45058.278450 step=14
 Au            16.24040274      16.25208818      15.98788606       0.00000000       0.00000000       0.00000000      -0.00141479       0.00144578       0.00214010      -3.56775334 F F F
 Pd            14.89495805      14.84580227      14.06754585       0.00000000       0.00000000       0.00000000       0.00312691       0.00058169      -0.00086965      -4.07439905 F F F
 Au            16.25896897      16.26915253      12.15211057       0.00000000       0.00000000       0.00000000       0.00357131       0.00069108       0.00018563      -2.57324865 F F F
 Pd            16.31114521      13.39201509      15.97687415       0.00000000       0.00000000       0.00000000       0.00211596       0.00324796       0.00269977      -4.52405900 F F F
 Au            13.28357851      16.27367086      15.87013723       0.00000000       0.00000000       0.00000000       0.00136257      -0.00049829      -0.00061721      -3.21922162 F F F
 Pd            13.61272802      13.54046274      16.05951718       0.00000000       0.00000000       0.00000000       0.00425368       0.00222685      -0.00073814      -3.83384932 F F F
 Pd            16.31873385      16.32908228      23.85090879       0.00000000       0.00000000       0.00000000       0.00199608       0.00306850      -0.00171880      -3.77807460 F F F
 Au            14.87510598      14.83857629      22.05570236       0.00000000       0.00000000       0.00000000      -0.00109636       0.00263204       0.00302532      -2.76552986 F F F
 Au            16.24019804      16.25138654      20.03175155       0.00000000       0.00000000       0.00000000      -0.00585997       0.00232977       0.00264931      -3.42102983 F F F
 Pd            14.90109921      14.89509422      18.01879653       0.00000000       0.00000000       0.00000000      -0.00003071       0.00441589       0.00338362      -4.88516764 F F F
 Au            16.31158039      13.23814591      20.16186471       0.00000000       0.00000000       0.00000000      -0.00055850       0.00180194       0.00362149      -3.17443610 F F F
 Pd            14.97134057      12.17482622      17.99398541       0.00000000       0.00000000       0.00000000       0.00079270       0.00655048       0.00221002      -3.83524479 F F F
 Au            13.23931533      16.28926905      20.16372145       0.00000000       0.00000000       0.00000000      -0.00605104       0.00022109       0.00367063      -3.05821356 F F F
 Au            12.13417877      14.89510387      18.00111348       0.00000000       0.00000000       0.00000000       0.00303247      -0.00227589      -0.00038123      -2.57513775 F F F
 Au            13.54884629      13.49787269      19.98372347       0.00000000       0.00000000       0.00000000       0.00099882       0.00320482       0.00284720      -2.52402091 F F F
 Pd            16.29170873      21.95841266      15.98663331       0.00000000       0.00000000       0.00000000       0.00124425       0.00003318       0.00054517      -4.48687670 F F F
 Pd            14.88086462      20.49940617      14.06919513       0.00000000       0.00000000       0.00000000       0.00086910      -0.00001278      -0.00041081      -4.07419514 F F F
 Au            16.24389050      19.12648181      16.00076009       0.00000000       0.00000000       0.00000000      -0.00134051      -0.00028172       0.00015495      -3.60788915 F F F
 Pd            14.75067336      17.67561898      14.00596454       0.00000000       0.00000000       0.00000000       0.00109024      -0.00079946      -0.00152720      -4.39318468 F F F
 Au            16.25204888      19.08375871      12.15135706       0.00000000       0.00000000       0.00000000       0.00234695       0.00030832       0.00126803      -2.57034403 F F F
 Pd            13.59681445      21.80135334      16.06281456       0.00000000       0.00000000       0.00000000       0.00232816      -0.00375778       0.00142708      -3.83376266 F F F
 Au            13.28033606      19.06762815      15.87041885       0.00000000       0.00000000       0.00000000       0.00041275      -0.00283954      -0.00175498      -3.21880193 F F F
 Pd            14.93894446      23.18624900      18.01462461       0.00000000       0.00000000       0.00000000       0.00200405      -0.00385855       0.00044020      -3.82043155 F F F
 Pd            14.89749934      20.47548993      21.97882929       0.00000000       0.00000000       0.00000000      -0.00085395      -0.00231991      -0.00027932      -4.00062965 F F F
 Au            16.31425148      22.06945412      20.15721627       0.00000000       0.00000000       0.00000000       0.00105686      -0.00307826      -0.00082580      -3.23346190 F F F
 Pd            14.91271018      20.47791989      18.02681031       0.00000000       0.00000000       0.00000000       0.00129594      -0.00327215       0.00099559      -4.91245519 F F F
 Au            16.30012121      19.12027020      23.93268913       0.00000000       0.00000000       0.00000000       0.00130277      -0.00004242      -0.00267933      -2.59417673 F F F
 Au            14.61352318      17.68607309      22.16841402       0.00000000       0.00000000       0.00000000      -0.00787614       0.00015628       0.00564781      -3.09437187 F F F
 Au            16.24647655      19.13915149      20.02830748       0.00000000       0.00000000       0.00000000      -0.00366747      -0.00122939       0.00025661      -3.50813144 F F F
 Au            14.79266964      17.69049665      18.02182032       0.00000000       0.00000000       0.00000000      -0.00423210       0.00062774       0.00211941      -3.45057373 F F F
 Au            13.53111378      21.85171614      20.00200996       0.00000000       0.00000000       0.00000000       0.00120397      -0.00469252      -0.00154552      -2.57588473 F F F
 Au            12.13927621      20.44157522      18.00358069       0.00000000       0.00000000       0.00000000       0.00250964      -0.00535197      -0.00098858      -2.58468142 F F F
 Au            13.24042355      19.06503826      20.17786806       0.00000000       0.00000000       0.00000000      -0.00500176      -0.00261671       0.00261893      -3.09453684 F F F
 Pd            12.06335113      17.66792706      18.00197487       0.00000000       0.00000000       0.00000000      -0.00289323      -0.00357626      -0.00089019      -3.96360431 F F F
 Pd            21.97511696      16.29049679      15.98243444       0.00000000       0.00000000       0.00000000      -0.00022224       0.00098862       0.00129642      -4.45218510 F F F
 Pd            20.48180646      14.85321696      14.08311251       0.00000000       0.00000000       0.00000000       0.00097980       0.00110526       0.00336833      -4.04664486 F F F
 Pd            21.74795718      13.57242221      16.09886150       0.00000000       0.00000000       0.00000000      -0.00107221       0.00064879       0.00253774      -3.90542521 F F F
 Au            19.12038003      16.24142141      15.99267282       0.00000000       0.00000000       0.00000000      -0.00129587       0.00121069       0.00241315      -3.55867351 F F F
 Au            17.68209325      14.61538466      13.93108248       0.00000000       0.00000000       0.00000000       0.00144412       0.00134027       0.00259908      -3.21826861 F F F
 Au            19.09140323      16.25818571      12.16008441       0.00000000       0.00000000       0.00000000       0.00254173       0.00058535       0.00347237      -2.51818905 F F F
 Pd            19.04575990      13.38801257      15.97609583       0.00000000       0.00000000       0.00000000      -0.00093355       0.00281867       0.00297387      -4.53134115 F F F
 Au            23.23698714      14.89574572      18.02568165       0.00000000       0.00000000       0.00000000      -0.00008212       0.00065832      -0.00193289      -2.66181672 F F F
 Pd            20.49357047      14.88548664      21.96260331       0.00000000       0.00000000       0.00000000       0.00045140      -0.00016824      -0.00528435      -4.10736736 F F F
 Pd            21.96467664      16.30047415      20.07316871       0.00000000       0.00000000       0.00000000       0.00027322      -0.00030649      -0.00379025      -4.47852044 F F F
 Pd            20.44210933      14.89428378      18.03183933       0.00000000       0.00000000       0.00000000      -0.00241715       0.00154001      -0.00037723      -4.96282643 F F F
 Pd            21.78000112      13.57393532      19.95021299       0.00000000       0.00000000       0.00000000      -0.00049383       0.00061954      -0.00395677      -3.88766338 F F F
 Pd            20.39340839      12.18994994      18.00781886       0.00000000       0.00000000       0.00000000      -0.00237705       0.00086457      -0.00065233      -3.88388563 F F F
 Pd            19.10607279      16.26664029      23.83176529       0.00000000       0.00000000       0.00000000       0.00091193      -0.00045795      -0.00710273      -3.85584938 F F F
 Pd            17.69101483      14.78905514      22.02275300       0.00000000       0.00000000       0.00000000      -0.00032262       0.00155933      -0.00215452      -4.44771242 F F F
 Au            19.12537626      16.23730749      20.03082112       0.00000000       0.00000000       0.00000000      -0.00192523       0.00064192      -0.00323740      -3.53473848 F F F
 Au            17.67094972      14.80943738      18.02379497       0.00000000       0.00000000       0.00000000      -0.00276004       0.00185741       0.00479280      -3.55115035 F F F
 Au            19.07771363      13.25456830      20.17095116       0.00000000       0.00000000       0.00000000      -0.00060445      -0.00139858       0.00018463      -3.23979243 F F F
 Pd            17.68500978      12.09038233      18.00690754       0.00000000       0.00000000       0.00000000      -0.00128749       0.00230008       0.00205763      -4.08523965 F F F
 Pd            21.79979759      21.80853708      16.08153860       0.00000000       0.00000000       0.00000000       0.00127942       0.00196042       0.00013722      -3.83630010 F F F
 Pd            20.48173678      20.47810547      14.08392570       0.00000000       0.00000000       0.00000000       0.00156826       0.00225732       0.00085773      -4.01396922 F F F
 Au            22.07810069      19.08048844      15.90566671       0.00000000       0.00000000       0.00000000       0.00110388       0.00124614      -0.00003219      -3.22809111 F F F
 Au            20.72726329      17.66137098      13.94810758       0.00000000       0.00000000       0.00000000       0.00043027       0.00125948       0.00318399      -3.16965497 F F F
 Au            19.06567655      22.06517658      15.91421663       0.00000000       0.00000000       0.00000000       0.00080046       0.00195152       0.00023346      -3.25076601 F F F
 Au            17.66678343      20.73698201      13.92155798       0.00000000       0.00000000       0.00000000       0.00111691       0.00119938       0.00147496      -3.15885962 F F F
 Au            19.09145685      19.12508691      16.00581242       0.00000000       0.00000000       0.00000000      -0.00036485       0.00131146      -0.00142475      -3.52085660 F F F
 Pd            17.67997392      17.68157666      14.08387431       0.00000000       0.00000000       0.00000000       0.00016963       0.00008683       0.00223940      -4.82915742 F F F
 Au            19.08903709      19.08298139      12.15374515       0.00000000       0.00000000       0.00000000       0.00122530      -0.00000811       0.00297642      -2.51902288 F F F
 Pd            23.15999437      20.42644364      18.03575973       0.00000000       0.00000000       0.00000000      -0.00030437      -0.00038456      -0.00078491      -3.80101079 F F F
 Au            23.38351744      17.67448456      18.02938954       0.00000000       0.00000000       0.00000000       0.00142232       0.00018949      -0.00204536      -2.78529729 F F F
 Pd            20.42084508      23.16593209      18.03692314       0.00000000       0.00000000       0.00000000       0.00029594      -0.00164289       0.00035960      -3.85741895 F F F
 Pd            20.46835858      20.45402682      21.98056169       0.00000000       0.00000000       0.00000000       0.00086348      -0.00379367      -0.00166989      -4.07922520 F F F
 Au            21.81611567      21.84359737      20.00927988       0.00000000       0.00000000       0.00000000      -0.00133427      -0.00433649      -0.00197461      -2.66861421 F F F
 Pd            20.45149460      20.46749892      18.00477019       0.00000000       0.00000000       0.00000000      -0.00000709      -0.00087782      -0.00352308      -4.92014809 F F F
 Pd            20.58743253      17.66290324      22.01627743       0.00000000       0.00000000       0.00000000       0.00066828      -0.00202872      -0.00490459      -4.52106262 F F F
 Au            22.09554810      19.05684207      20.17945734       0.00000000       0.00000000       0.00000000       0.00312278      -0.00232156      -0.00137184      -3.21211328 F F F
 Au            20.55639155      17.67864133      18.01768357       0.00000000       0.00000000       0.00000000       0.00031841       0.00184442      -0.00136817      -3.52540300 F F F
 Au            17.67556480      23.32316862      18.02382052       0.00000000       0.00000000       0.00000000       0.00116874      -0.00069767       0.00103264      -2.88078039 F F F
 Pd            17.71050745      20.57804403      22.02599722       0.00000000       0.00000000       0.00000000       0.00084273      -0.00136412      -0.00211623      -4.49052301 F F F
 Pd            19.05372368      21.95054076      20.07367219       0.00000000       0.00000000       0.00000000       0.00025105      -0.00242822      -0.00112228      -4.49574494 F F F
 Pd            17.67738529      20.53728104      18.02020109       0.00000000       0.00000000       0.00000000      -0.00024733      -0.00064348      -0.00028796      -5.03217729 F F F
 Pd            19.09750889      19.04611915      23.84523769       0.00000000       0.00000000       0.00000000       0.00041781      -0.00376787      -0.00458753      -3.84293645 F F F
 Au            17.70131382      17.68309247      21.95332931       0.00000000       0.00000000       0.00000000      -0.00199259       0.00106234      -0.00549206      -3.45662481 F F F
 Au            19.11939487      19.13357228      20.01056931       0.00000000       0.00000000       0.00000000       0.00088708      -0.00064387      -0.00317152      -3.58259500 F F F
 Pd            17.67212156      17.69185844      18.01653584       0.00000000       0.00000000       0.00000000      -0.00254925       0.00112292      -0.00050614      -4.93397395 F F F
