50
Lattice="9.9905032156 0.0 0.0 0.0 9.9905032156 0.0 0.0 0.0 9.9905032156" Properties=species:S:1:pos:R:3:local_energy:R:1:hirshfeld_v:R:1:forces:R:3 energy_soap=-251.40662743 energy_2b=3.41131239 energy_3b=2.35057589 energy_core_pot=0.0 energy_vdw=0.0 energy_exp=0.0 energy_xps=0.0 virial="9.85743679 -4.89798973 -1.15335053 -4.89798973 -2.66383438 4.03190352 -1.15335053 4.03190352 5.31946055" volume=997.153669 config_type=iter_9 energy=-245.644739 stress="-0.00988557 0.00491197 0.00115664 0.00491197 0.00267144 -0.00404341 0.00115664 -0.00404341 -0.00533464" pbc="T T T"
H        3.49767017       7.30854167       6.76561377      -2.92034286       0.81156962      -2.83832499       1.75416451      -0.02760203
H        0.64049726       2.53497082       7.33926268      -3.62753063       0.65734065       0.25976702      -1.06782818      -2.06487836
H        4.60803076       8.87101408       5.09697345      -2.62701473       0.59967727      -0.31318742       0.14254187       1.02529769
H        1.47391399       6.11843157       5.79085063      -2.55349527       0.67320172      -1.09150084      -0.50827973       1.78452547
H        3.22263154       6.46162432       2.01985065      -2.87612436       0.68785020      -1.45383077       1.01325438      -0.85938962
H        2.51560721       7.83715806       6.80974290      -2.68421890       0.78780149       3.21111919      -1.85852304       0.61325876
H        5.20150618       9.81238614       2.29790734      -2.76739264       0.84941592       0.22392823       0.17971782      -1.53896445
H        7.44617635       8.69943798       2.17541137      -3.93794514       0.70635504      -0.09973486       2.02605359       0.37471905
H        1.22541594       7.85359786       8.65238792      -3.79996593       0.69005719       0.65517978       0.79634153       0.78222694
H        3.76817975       6.12022821       2.28443226      -3.37487380       0.67949845       1.48440181      -1.08649565       0.41154605
H        7.16778338       6.40252125       9.77017154      -3.85046249       0.70618138      -0.04552866       2.57781948      -1.95235038
H        3.11212436       2.87903775       2.66639499      -3.63610401       0.68423998       3.96276316       2.10955782      -0.94951904
H        5.56959436       8.30362974       4.20146862      -3.17230984       0.84102320       0.68236649      -0.24476998       1.02650128
H        3.30356322       5.91734914       4.87125479      -3.65292292       0.74603009      -4.96972682      -0.95103640       0.19018258
H        1.32281691       7.19559504       1.71002131      -2.76678330       0.67986248       0.02171311       0.02198838       1.68288739
H        5.70479094       0.74626002       3.72263664      -3.65866600       0.64561068       1.34464802       1.76994603       1.12367195
H        6.29951479       3.81541879       4.03297422      -3.17522365       0.71020104      -0.58511390      -2.46495510      -0.97511780
H        6.48948818       6.98366578       2.44274139      -3.26732120       0.77945422      -1.99291217       1.53004316      -0.24239769
H        2.34907415       6.45823192       3.96402102      -3.95947418       0.76951823      -0.93019805       0.26789032       0.10793621
H        1.46023294       2.95675568       2.71717359      -4.01324959       0.62976205      -0.42878549      -1.63132393       0.94416503
H        6.66845201       4.46519642       7.23592715      -2.42899030       0.60214219       0.82306981       0.66138771       0.78750440
H        0.71529805       2.86185459       9.10541907      -3.26948207       0.68267114       1.21548403       1.66286364      -2.08266547
H        6.12555131       2.98564840       3.85556345      -2.66446097       0.65941475       0.65940959       2.69084712       0.28504507
H        5.67183879       3.98973589       5.98499300      -3.84729748       0.72490944      -3.23565612       2.45966603       0.09712728
H        8.10108262       9.37151304       0.02586793      -4.04306436       0.71648644      -0.24847035      -1.05271393      -1.02697118
C        7.37984266       7.36009386       8.79413927      -7.07702923       0.87009902       1.28545167       0.16186067       1.58020449
C        9.21655147       6.61040559       3.23382606      -6.62191802       0.93662122       0.48312698       0.97470533      -3.37413354
C        5.23507858       8.87660615       3.23055719      -6.39394385       0.84764977       3.53772101      -7.53665434      -1.12949206
C        5.02753128       6.23410805       3.80147286      -5.23129490       0.89711270       1.33280672       1.46528038       0.36046815
C        2.34052097       2.33325492       3.01382420      -7.39450709       0.80600652      -2.69308876      -1.36272457      -0.36165175
C        5.95660253       6.27473004       6.50434076      -6.32007616       0.84955533       5.36105825      -3.30333962       9.59606391
C        4.94922232       0.04040978       3.69054261      -6.02903460       0.81749236      -2.99280692       7.24434067       2.59545028
C        4.18488608       5.76051029       5.26651191      -6.31677055       0.82863453       4.64974745       2.14294684      -2.85255088
C        8.07808417       8.48236309       9.34186221      -5.88175195       0.87115560      -2.26406142      -2.83448525      -1.59372785
C        8.35881463       6.60277457       1.99694154      -5.77146517       0.91337635       0.06279098       2.11238432       2.91626675
C        5.41299534       7.72777679       2.63217170      -6.37506130       0.86586960       0.57635150      -6.71189682      -1.42951727
C        0.21868765       4.69838295       7.71993238      -7.76095921       0.84811047       2.46176651      -1.00828034      -1.56677258
C        2.60790763       1.04023748       3.28848265      -6.76218416       0.86031584       1.23494278      -0.93708170       2.15670290
C        3.62755989       0.33570790       3.81365442      -7.58859203       0.84761898      -4.45652801       3.47796995      -1.56252726
C        0.76614912       6.01804092       7.55119578      -7.02500997       0.85341981       3.87296008       0.08935751       2.18250797
C        0.24275748       7.44307427       2.95273865      -6.63244806       0.91533552       5.39701950      -3.95345624       2.67029033
C        5.59684823       6.78026604       5.43974713      -5.75253174       0.85765344      -6.56841205       5.25936794     -11.82188379
C        9.00691233       5.55177869       7.68273955      -7.04424098       0.82608943       5.42063166      -4.80639812      -0.04836337
C        5.07350670       5.07263497       6.00319132      -5.99328783       0.85310947       3.24317789      -4.65093873       3.49538371
C        1.70025134       6.89561717       3.21850881      -5.39927908       0.89003950      -4.51039286       2.28937904      -3.55702722
C        6.99259693       6.96201677       7.19149082      -7.53283483       0.85727264       1.00012679       0.43346576       4.03740121
C        0.98411986       3.43475581       7.76313049      -6.37457163       0.87582127      -4.15915857       2.97383026       4.39750999
C        8.12603254       6.33760832       7.84415586      -6.87308162       0.84640916      -4.65915190       3.52900212      -0.55720816
C        7.77536606       7.77221211       1.89207408      -6.69804942       0.83857281       0.15832319      -3.32799565      -1.75064233
C        1.52865394       6.91362661       8.24237584      -6.22009914       0.85601817      -4.08528225      -2.51879687      -3.89949075
50
Lattice="9.9905032156 0.0 0.0 0.0 9.9905032156 0.0 0.0 0.0 9.9905032156" Properties=species:S:1:pos:R:3:local_energy:R:1:hirshfeld_v:R:1:forces:R:3 energy_soap=-249.19473753 energy_2b=-0.34106036 energy_3b=0.09339088 energy_core_pot=0.0 energy_vdw=0.0 energy_exp=0.0 energy_xps=0.0 virial="-31.49069238 4.56643388 -5.7870099 4.56643388 -35.33900349 0.13931957 -5.7870099 0.13931957 1.86638648" volume=997.153669 config_type=iter_9 energy=-249.442407 stress="0.03158058 -0.00457947 0.00580353 -0.00457947 0.03543988 -0.00013972 0.00580353 -0.00013972 -0.00187171" pbc="T T T"
H        3.92489461       9.79740842       6.85003020      -3.08642470       0.64740506       2.23783827       0.93751581      -0.65507649
H        1.22364396       2.06677049       7.42115621      -3.49759272       0.69140311      -0.92538076       3.27194404       1.54939856
H        4.67257006       0.09063041       6.63721789      -3.26067945       0.65310256      -2.17439151      -0.90675006       0.54653813
H        1.98602236       5.83409038       9.74613215      -1.83412879       0.83855605      -0.00216216       0.13980213      -0.71835615
H        2.85317998       5.31730020       2.09786012      -3.32641835       0.66593528      -1.01013692       1.40289935      -0.80411629
H        2.51526116       7.36470814       7.35992361      -3.20106154       0.75644423      -1.27219533       0.25022071      -1.85409460
H        5.40041697       8.95306345       2.71937682      -3.57196199       0.72768897       0.45743156      -1.02673611       1.42943092
H        8.03859827       8.93949452       1.61065749      -3.58288555       0.71148905      -2.15802743       0.90341862       0.25352157
H        2.51895968       7.14317680       8.77927742      -2.74780401       0.75862648      -2.56529598      -0.64641769       0.61175726
H        2.40434027       5.88381999       1.70675239      -2.92800266       0.68816126       1.00982174      -1.42995137       1.37578568
H        6.95670041       6.73692376       9.41941542      -4.25759370       0.69677812      -5.57356593      -2.05911801       2.36354094
H        3.50920001       2.51980442       1.54369453      -3.79339738       0.69302862      -2.18987166      -1.29535721       2.73980661
H        6.41594578       8.95615462       4.03059115      -3.92536410       0.71910427       8.78221692       0.55581125       1.31113463
H        3.02461754       6.31551422       5.43835412      -4.14907512       0.68422071       3.03558562      -0.40102518      -1.95329475
H        1.04841930       8.69293847       2.33406748      -3.66197990       0.68285205      -2.31049175      -2.67324064       1.88530343
H        5.93064965       0.92404436       4.11985695      -3.35531483       0.71481653      -3.00987987      -2.67866944       0.67277976
H        5.61396251       2.74958194       3.70968949      -2.69235927       0.82373274       3.29591296       1.42943596       2.05663309
H        6.70737147       7.89961150       0.88773698      -3.96121658       0.73414948      -3.26193600      -0.92453985      -2.97276529
H        1.40434155       7.02443927       3.94401454      -3.08532594       0.80026063       2.71695783      -0.49503600       3.06681515
H        1.62437009       2.75058271       2.20945111      -3.78879334       0.67238653       0.95747285      -0.23628465       0.00833939
H        8.35717123       5.22217859       9.81287432      -2.54777138       0.59518954       0.29769543      -0.17576040      -0.43934856
H        2.27453487       3.89103863       7.37090033      -3.34718859       0.69680008      -3.37428517      -0.93109618       1.48869706
H        6.44766757       3.03863524       4.21856337      -2.50470243       0.75862313      -3.38963669      -0.59232899      -1.95606428
H        4.33856848       4.50958870       6.53239220      -4.17483448       0.71069551      -1.30653261      -2.13602173       1.81816466
H        7.36077604       9.56114624       9.73485875      -3.67586340       0.68153426       1.01114062      -2.34730770      -1.56153401
C        7.76590571       7.10472172       9.06296588      -6.07447100       0.83795545       4.13666181       6.99683832       1.63572903
C        9.23646790       6.85770866       2.98584926      -6.38116069       0.89350220       1.10757608      -0.73154508      -0.70827872
C        5.56286184       8.63215851       3.89066806      -6.80846134       0.85746246      -8.15637725       2.04653522      -3.83788212
C        4.83345933       6.73609851       4.00723932      -6.00250238       0.85512097       5.21724228       1.99588989      -6.76739457
C        2.61093159       2.23385478       2.42254674      -7.30518843       0.84702656       0.17458321      -1.32113219      -0.04124381
C        6.27878731       5.65354768       6.41005034      -6.45031984       0.89500687      -1.04479247       2.77646890      -0.91544850
C        4.83907216       0.03229675       4.21607536      -6.64972808       0.84033861       2.55330102      -0.00064214       0.11346202
C        4.15486134       6.11293856       4.86984979      -6.61411353       0.82971804      -4.76363821      -5.10888252      10.84758632
C        7.86814711       8.49719565       9.46781401      -5.90633233       0.87620105      -0.34302430      -1.26245546      -0.83270112
C        8.65030022       7.24887016       1.83599637      -6.57362675       0.86997346      -3.74107908      -0.37251845       1.09685136
C        5.37023293       7.03909123       2.74152040      -5.61072719       0.92915849      -0.00358891       1.04457619      -0.32361397
C        9.75640421       3.99158383       7.86523326      -6.60571611       0.91062818       3.91075048       0.68688451      -0.27669886
C        2.60316555       1.16206208       3.38261701      -6.92330806       0.88824217       1.40978611       2.46053728      -2.20761977
C        3.68816571       0.57039876       3.85484882      -7.76526482       0.84921060       0.25760874       0.01369583      -0.46349294
C        0.44704898       6.43171653       7.33943465      -6.76627866       0.86279081       1.90302344      -1.48505051       2.78397181
C        0.36808709       7.62334319       2.97299793      -6.87263852       0.86644227       1.23785442       4.48638461      -4.03466179
C        5.52830332       7.03504334       5.20449050      -5.63350283       0.91739043      -3.51237871       0.29459779       0.96424330
C        9.49883705       5.42084690       7.62808124      -8.91081581       0.87668357      -1.51857701       1.80962964       1.16267553
C        4.97386508       4.96537591       5.87996124      -6.44994270       0.85272423       3.55503760       6.77016021      -2.23701507
C        0.92538430       6.39483162       3.22016241      -5.68258175       0.90434036      -1.92058479      -0.41864843      -1.23369697
C        7.03445187       6.66038826       7.08344106      -5.95136892       0.91706739       0.87627907      -6.28066618      -0.28196267
C        0.99615470       3.35268459       7.82339292      -6.54172070       0.88384589       0.11788363      -0.54822509      -3.24867114
C        8.28761538       6.28445979       8.12865998      -7.50889301       0.86526202      -0.96318262      -2.15482735      -5.68992408
C        7.31919047       8.08002365       1.62688725      -6.51221950       0.84407752       7.85385216       0.33272213       4.63729242
C        1.53712926       6.99848703       7.79312627      -6.98378389       0.82036970       2.37749925       0.03426625      -0.40450211
50
Lattice="9.9905032156 0.0 0.0 0.0 9.9905032156 0.0 0.0 0.0 9.9905032156" Properties=species:S:1:pos:R:3:local_energy:R:1:hirshfeld_v:R:1:forces:R:3 energy_soap=-249.69394655 energy_2b=-3.51344605 energy_3b=0.70704017 energy_core_pot=0.0 energy_vdw=0.0 energy_exp=0.0 energy_xps=0.0 virial="-6.91756556 -0.28347874 -0.05486238 -0.28347874 -12.39415492 -3.82004588 -0.05486238 -3.82004588 -11.04682372" volume=997.153669 config_type=iter_9 energy=-252.500352 stress="0.00693731 0.00028429 5.502e-05 0.00028429 0.01242953 0.00383095 5.502e-05 0.00383095 0.01107836" pbc="T T T"
H        3.88833367       2.03618039       7.87514319      -2.13433305       0.92519282       1.52487353      -0.23715281      -3.27271637
H        1.28536628       2.58124755       8.13130194      -3.64862079       0.63992129       3.50636301      -4.64192612       2.35372958
H        4.42366063       1.94678517       6.72193630      -2.21534116       0.90110698      -1.69202056       0.17578732       3.50648829
H        1.60767306       7.21124449       1.88133266      -2.85447602       0.64887242       0.21345298       1.81819859       1.54537942
H        1.46308821       4.17072079       2.19455790      -2.64302657       0.60846509      -0.22563207      -0.12997010       0.12572340
H        2.12593813       7.67946123       6.69743587      -4.19892460       0.71338741       1.93199796       0.16636461       1.16334154
H        5.15370190       8.16439010       3.17648898      -3.12924625       0.78478546      -0.32969922       4.39822578      -3.17056073
H        6.54232400       9.21477945       1.55195856      -3.89288420       0.68914472       0.98370793       0.10253216      -0.63651121
H        1.91886325       6.40144450       8.52608326      -3.95246336       0.72290215       2.63015910       2.19364700      -2.36203744
H        2.01389132       4.59044961       1.95312890      -3.23550404       0.61209092       0.66314340       0.40942500      -0.24407145
H        7.08099743       6.48112823       9.71353941      -3.95738423       0.76023260       0.24747443      -1.34849849       0.55572427
H        3.48289377       2.35750409       1.74488639      -3.12634222       0.66963983       5.95189160       3.13164922      -4.70188931
H        6.82297172       9.17961031       4.15711946      -4.03560849       0.66708091       1.44048273       0.18646765      -0.12393921
H        3.14678559       5.60314577       4.82317227      -3.96215310       0.72376429       1.77986408       2.35431731      -0.06735696
H        9.91317578       8.97516164       3.59395666      -3.51562468       0.69052086       2.19661215      -2.23529770      -1.08145446
H        5.07583394       0.21461761       5.52102454      -3.80028234       0.68976917       0.40470748       2.44174639       5.89682448
H        6.09014425       2.69314613       4.57584952      -2.76809287       0.74122386      -3.04332734       1.98020236      -1.69535060
H        6.30051901       7.50267402       2.31064719      -3.52636173       0.61412612       0.72999632      -0.67471463      -1.24997435
H        0.23141904       5.25883014       3.32369046      -3.86212796       0.71395817      -0.03374249      -0.70848463       1.17568170
H        1.68860741       2.46864489       1.75253188      -4.00360149       0.67498266       1.20571561      -2.18366235       0.56235081
H        9.95262976       7.56035952       1.37636950      -3.03702209       0.85447550      -0.02502297      -0.37297126      -1.48449578
H        1.06716082       3.52850504       6.47808629      -3.95959980       0.68630633       0.54616261      -0.27976660       2.16508694
H        5.36670093       3.20755341       4.22598562      -2.85900401       0.75907646       3.16523489      -2.17724729       1.15994093
H        4.37085302       4.23882362       5.88319104      -3.69940036       0.69996448       1.22928635       1.97133866       2.09134602
H        7.60692718       8.51166086       8.58026221      -3.73863521       0.74257547      -0.96615510       2.64308040       0.20428562
C        8.05144399       6.92621721       9.33865548      -6.83019316       0.86139148      -0.78578836      -5.22267542      -1.69080596
C        9.42767199       7.14165056       2.43010916      -6.14126250       0.86250507      -3.22382352      -1.84517118      -2.06015417
C        5.79059140       9.01055500       4.28149545      -7.07572423       0.83655364      -3.77847798      -1.87413541      -0.48361018
C        5.01567179       7.42669846       3.82419003      -6.50659369       0.86762390       1.60437401      -6.34255798       2.60605926
C        2.66977133       1.97259077       2.07155439      -6.92010441       0.78906318      -6.55312115       1.23269967       0.27902537
C        6.29095886       5.43894968       6.12698003      -7.14646198       0.86217937       3.87940603       1.59467313       5.09081486
C        4.80167058       9.95156576       4.62534966      -7.11235187       0.81613659      -0.83744223      -0.51664374      -4.89812390
C        4.23826963       6.05187219       5.04892674      -6.64905677       0.85178504      -3.09400735       3.74353420      -3.63832358
C        7.69019178       8.16503838       9.61887714      -6.82332297       0.85517349      -0.24840386       2.64378827       2.22335937
C        8.38151676       7.69830341       1.71524440      -6.80720207       0.86901515      -3.57625659       1.59055616       1.76095236
C        5.22016193       6.15252743       2.85600844      -3.73600893       1.00535678      -0.24120982       2.24215569       1.15895485
C        9.69323331       3.81957094       7.97675977      -5.99688191       0.91724254      -1.03037793       6.33964283       0.27983638
C        3.03953459       1.48685022       3.19809831      -6.92095925       0.84025986       1.30022999      -5.55822950       5.03065234
C        3.77168792       0.63860723       3.93855166      -7.83851785       0.84061436       0.35104725       1.69009960      -0.34957212
C        0.41725972       6.59384990       7.29977021      -6.32180127       0.88852137       3.16073299      -1.98024344       0.82128786
C        0.51246200       7.79732593       2.93432647      -5.61088057       0.89728273       3.87036780       0.03590741       4.02347714
C        5.50224464       7.16572019       5.19166125      -6.08389696       0.90823116      -2.51374872       0.62241580      -1.51008439
C        9.55939114       5.54356193       7.83549738      -8.57246039       0.87535218       2.71814961      -1.59191500      -0.95342566
C        4.91918151       5.41034179       5.89857071      -6.59925001       0.84692157       1.59831999      -6.91291447       0.70414392
C        0.25868517       6.32224535       3.41922794      -5.61752411       0.87352037      -1.59895060       4.26466305      -2.67314228
C        7.25620140       5.69303536       7.02304027      -7.05842923       0.86767318      -1.10233968       0.44787923      -1.09793356
C        0.87473462       3.34216511       7.70537906      -6.80907562       0.80436951      -2.87173779       3.21165167      -5.25584348
C        8.35171923       6.08991649       8.08019570      -8.39706661       0.86473471      -4.43737324      -0.02330760      -0.61277249
C        7.25291206       8.40866111       1.32200268      -7.14801417       0.83501845       1.64319987      -3.44537696      -2.50773362
C        1.81389530       6.89723271       7.40547773      -6.02125130       0.83685512      -8.26829512      -3.32978648       1.33741658
50
Lattice="9.9905032156 0.0 0.0 0.0 9.9905032156 0.0 0.0 0.0 9.9905032156" Properties=species:S:1:pos:R:3:local_energy:R:1:hirshfeld_v:R:1:forces:R:3 energy_soap=-255.48236556 energy_2b=0.80235455 energy_3b=1.32108687 energy_core_pot=0.0 energy_vdw=0.0 energy_exp=0.0 energy_xps=0.0 virial="-12.57585548 7.56774449 -2.06259126 7.56774449 -13.68638754 5.81791024 -2.06259126 5.81791024 -8.294617" volume=997.153669 config_type=iter_9 energy=-253.358924 stress="0.01261175 -0.00758935 0.00206848 -0.00758935 0.01372545 -0.00583452 0.00206848 -0.00583452 0.00831829" pbc="T T T"
H        3.53553795       4.15689715       8.79668960      -2.52309929       0.73788970      -0.44826888      -0.31917447      -3.36784020
H        1.21072111       3.59141520       8.31507103      -2.63459122       0.81792965       0.39153692       0.50579606       1.45322655
H        3.39891429       4.08671666       7.80286009      -2.69499191       0.77275239       0.43787861       0.23322717       3.78858630
H        1.32607988       9.11886943       4.38755951      -3.29402964       0.65670394      -0.85847606       0.10066216       0.82335051
H        0.83668331       3.38278105       2.47382940      -3.11347637       0.77068399       1.53398732      -1.68124013      -0.55171006
H        2.06903152       7.87194576       7.32922068      -3.77040258       0.70791196       1.66968126       0.84821170      -0.28181796
H        4.29501096       7.42373938       3.13188905      -3.49622249       0.86851369       0.21960278       0.84676089      -0.95559821
H        6.71443342       9.23279581       1.03995660      -4.03061876       0.64807170      -1.04158099       0.79253206      -0.33443785
H        4.15487578       7.10403816       6.83015498      -2.44079345       0.63447874      -0.45264889      -0.40620727      -0.75469497
H        1.51182448       2.69792730       2.23778064      -2.79647962       0.73870075      -1.37719288       1.40837075       1.61097973
H        8.84834698       5.93691535       0.23445998      -3.72711103       0.70748108      -2.79818426       0.91806799      -2.13959426
H        2.71997844       2.31109653       0.67559370      -3.28364663       0.68287430       1.52913304      -1.14877765       2.92715188
H        6.73714955       9.75103574       4.16880417      -3.93123258       0.71618260      -3.42162334      -2.26004376       1.55432140
H        3.48739029       6.05958428       4.33454947      -4.04934260       0.71002901      -1.05202746      -0.82648915       1.84698696
H        0.80400836       9.21552011       4.94520357      -3.24282148       0.62523966       0.75209688      -0.18276226      -0.87125012
H        4.18833132       9.88803873       6.21333489      -3.80809518       0.68379728       1.25232177       0.87381394      -3.71272621
H        5.15380010       2.77551927       5.30465087      -3.04969188       0.71444118       0.82844055      -3.19832824      -0.43001703
H        6.56131435       6.14565838       3.29631391      -2.99093765       0.69194298      -1.53315188      -0.09024837      -0.14430560
H        8.76936584       5.91674286       3.27763996      -4.29373596       0.70486198       1.16484626       0.64293690       0.29975964
H        2.54092156       0.72552631       1.82630983      -2.89620315       0.71869261      -2.13970986      -1.18859952      -1.55009953
H        0.73971928       7.85720511       1.96410610      -2.82307237       0.82348931       0.40151807       1.00320324      -1.22060809
H        1.45047679       2.50016240       7.10607763      -3.58628384       0.64654142      -2.44869935       0.50902872      -0.68773627
H        5.34503982       1.89067004       5.25058228      -3.21979599       0.71547907      -0.26950979       3.91320757       0.62275377
H        4.91735558       4.70901008       6.82417846      -3.64205045       0.74086634      -1.91388717      -0.52419775      -0.49416040
H        6.56756902       8.37620330       8.90971137      -3.84022673       0.67509864       3.52686436      -1.89849070       1.01354850
C        7.84283181       6.45325486       9.32407029      -6.48199918       0.87002296       2.34965852       1.06635952       3.27362455
C        9.50933056       7.74940491       1.71956705      -7.01233984       0.87610509      -1.64745088      -2.51072018       4.16293998
C        5.62348227       9.20892459       4.64275714      -7.01872482       0.86835940       3.36405087      -1.84233230      -1.17842655
C        5.42166070       7.37951740       3.57483366      -5.33600679       0.91070053       1.35775273       1.75089919      -3.30004672
C        2.75698862       1.77116431       1.97884071      -7.61071927       0.83349669      -0.75935869       0.70250000      -3.81039018
C        6.49462656       5.38709576       6.28227720      -6.51447206       0.86579626      -0.90637105      -0.86078446      -1.35017975
C        4.67509942       0.06933121       4.99793026      -6.87563001       0.84231700      -2.60839980      -0.22854445       3.29227938
C        4.23283493       6.19030049       5.10591644      -6.95163564       0.86640326       5.22286137       0.68673795       2.27271883
C        7.58684768       7.81591567       9.56067232      -7.52299199       0.86096043      -5.56411227       1.83384772       0.26006621
C        8.12945483       8.04876862       1.87031843      -6.36421743       0.86299402       5.25404874      -0.69094992       1.92028015
C        4.96141317       6.09636686       3.20077312      -4.84823722       1.00866388       1.55764026      -1.56274459      -0.61451954
C        9.89907377       4.24388339       7.96352819      -6.71275352       0.86936526      -1.00184752       0.50284831      -1.73535554
C        3.67060453       1.42863548       2.94357168      -6.80484100       0.85150429       1.26608789       1.39795110       2.30766195
C        4.14844569       0.85480936       3.95914722      -7.68461937       0.83391935      -0.52156253       0.11504607      -0.57888068
C        0.61940213       6.17382960       7.46042739      -7.49557295       0.83760100       6.43141583       4.52876607      -2.48900891
C        0.68518311       7.48392925       3.17515138      -5.87424260       0.92245372      -3.49428403      -1.95426640       0.70875791
C        5.22073137       7.48548993       4.92027238      -6.19709011       0.89884181      -0.41788107       1.60703627       2.05345968
C        9.53292482       5.65608295       7.90277439      -7.58115356       0.84981151      -4.54117855      -4.24443288       1.79586351
C        5.17001742       5.29138859       5.94245954      -7.34141683       0.84121292      -0.48040663       1.38167695       0.13391719
C        9.49325458       6.74451133       3.19624240      -5.89970247       0.86047382       1.85532663       1.97509791      -2.73836881
C        7.46066223       4.83646560       7.01624813      -6.64658013       0.92472620      -1.05371111       4.07275052       1.93278032
C        0.56887747       3.26753642       7.45875287      -6.63648117       0.85394115       1.98932075      -0.87354023       0.79739231
C        8.02820589       6.03766174       8.06622223      -8.40015321       0.87353378       3.53908099      -4.08159960      -3.18656423
C        7.44948653       8.49319313       0.87531151      -7.77037136       0.83009229      -1.51795421      -0.34808914      -3.66886329