      50
 Properties=species:S:1:pos:R:3:velocities:R:3:forces:R:3:local_energy:R:1:fix_atoms:S:3 Lattice="9.9905032156        0.0000000000    0.0000000000    0.0000000000    9.9905032156    0.0000000000    0.0000000000    0.0000000000    9.9905032156" temperature=4905.56252255 pressure=50068.25257916 time_step=0.5000 time=0.000000 energy=-245.863471 energy_soap=-313.79198152  energy_2b=63.31517660 energy_3b=4.61333387 energy_core_pot=0.00000000 energy_vdw=0.00000000 energy_exp=0.00000000 energy_xps=0.00000000 virial="24.52654216          -6.94345418      3.24457630     -6.94345418      2.62119325     -2.17903918      3.24457630     -2.17903918      4.19476321" stress="-0.02459655           0.00696327     -0.00325384      0.00696327     -0.00262868      0.00218526     -0.00325384      0.00218526     -0.00420674" volume=997.153669 step=0
 H              3.49767017       7.30854167       6.76561377       0.14057878       0.11251145      -0.00105986      -2.79002835       1.65089254       0.09123201      -2.56540954 F F F
 H              0.64049726       2.53497082       7.33926268       0.04709909       0.03362393       0.10879675      -0.17434816      -1.20096435      -1.26783113      -3.46083845 F F F
 H              4.60803076       8.87101408       5.09697345      -0.00627736       0.04304911       0.09836429      -0.23768189      -0.09287960       1.06122515      -1.42537035 F F F
 H              1.47391399       6.11843157       5.79085063       0.10515513      -0.00835768       0.14181780      -0.60056519       0.05698997       1.17082906      -1.79368922 F F F
 H              3.22263154       6.46162432       2.01985065      -0.01618239       0.02996236      -0.02070473      -1.25850908       0.91836406      -0.82023870      -2.56740430 F F F
 H              2.51560721       7.83715806       6.80974290      -0.04714907       0.00010824       0.03437699       2.60017914      -1.64767716       0.42611897      -2.46281311 F F F
 H              5.20150618       9.81238614       2.29790734       0.05789482      -0.06145059      -0.00857104       0.53608665      -0.50792237       0.02804088      -1.74036002 F F F
 H              7.44617635       8.69943798       2.17541137      -0.04860313      -0.00450501       0.02407396       0.36747156       2.13213212       0.26214514      -3.39794788 F F F
 H              1.22541594       7.85359786       8.65238792       0.15686761      -0.01450694       0.01314023       0.37993571       0.79266019       0.41226399      -3.53534910 F F F
 H              3.76817975       6.12022821       2.28443226      -0.09450323      -0.09605518       0.00175948       1.57420471      -1.06900672       0.06492115      -2.90147110 F F F
 H              7.16778338       6.40252125       9.77017154       0.01874033      -0.00523650      -0.00280814       0.13013129       2.74493179      -1.05321681      -2.42712914 F F F
 H              3.11212436       2.87903775       2.66639499       0.09736531      -0.09359214      -0.10274968       3.65012098       2.09095681      -1.03331861      -3.27186967 F F F
 H              5.56959436       8.30362974       4.20146862       0.03547261       0.01243472      -0.07392223       0.51211319      -0.03264247       0.85451684      -1.69485868 F F F
 H              3.30356322       5.91734914       4.87125479      -0.01482482      -0.00229193       0.07107377      -5.74815154      -0.57732221      -1.40224250      -2.63677468 F F F
 H              1.32281691       7.19559504       1.71002131      -0.01997432       0.03740860       0.06562576       0.27493587      -0.28668083       1.01838128      -1.68382942 F F F
 H              5.70479094       0.74626002       3.72263664       0.05878664       0.03625647      -0.09001781       1.61777307       1.86364030       1.03676011      -3.03351767 F F F
 H              6.29951479       3.81541879       4.03297422       0.08294816      -0.02189643       0.03557406      -0.59580077      -2.06177520      -0.60545036      -2.81638359 F F F
 H              6.48948818       6.98366578       2.44274139       0.03759177       0.09957462      -0.08435526      -1.72835058       1.33129916      -0.30517474      -1.94906690 F F F
 H              2.34907415       6.45823192       3.96402102      -0.04609543       0.11105948      -0.02633879      -0.94047064      -0.23441307       0.23306094      -3.64435052 F F F
 H              1.46023294       2.95675568       2.71717359       0.02347475       0.02134344      -0.05227369      -0.49397630      -1.35600555       0.63235430      -3.89903082 F F F
 H              6.66845201       4.46519642       7.23592715       0.05888922      -0.01294695       0.15688068       0.58905897      -0.31174958       0.58896194      -1.66642146 F F F
 H              0.71529805       2.86185459       9.10541907       0.04852628       0.04732404       0.01390541       0.87206830       1.26132723      -2.27917519      -2.59547636 F F F
 H              6.12555131       2.98564840       3.85556345      -0.10178215      -0.04699989      -0.03784611       0.62714882       2.04000155       0.27725609      -2.97783238 F F F
 H              5.67183879       3.98973589       5.98499300      -0.08973412      -0.07009417       0.01907498      -2.28997580       1.78227208       0.02139572      -3.18649756 F F F
 H              8.10108262       9.37151304       0.02586793      -0.10735798       0.00701786       0.06745204      -0.33392616      -1.25275543      -0.35051511      -3.77241230 F F F
 C              7.37984266       7.36009386       8.79413927       0.00624714       0.00578754       0.01911778       2.60544222      -0.63669492       1.95056230      -7.86539428 F F F
 C              9.21655147       6.61040559       3.23382606       0.00542874       0.00407337       0.00839005      -1.00193750      -0.02641646      -2.13828808      -6.77925630 F F F
 C              5.23507858       8.87660615       3.23055719       0.00298550      -0.03969917       0.02847565       3.31197520      -6.22650303      -3.37707590      -7.53746387 F F F
 C              5.02753128       6.23410805       3.80147286      -0.00923755       0.02295171       0.00437752       0.10641890       0.57466612       0.35806593      -7.44454952 F F F
 C              2.34052097       2.33325492       3.01382420       0.00743094      -0.00300640      -0.01642639      -3.24220299      -1.16020406       0.09256800      -6.84876146 F F F
 C              5.95660253       6.27473004       6.50434076       0.01816162      -0.02499204      -0.00715701       5.55804352      -2.22994848       9.04057882      -5.18299804 F F F
 C              4.94922232       0.04040978       3.69054261      -0.00800733      -0.00542318       0.03723709      -2.50144575       6.02280223       0.59622883      -6.85295962 F F F
 C              4.18488608       5.76051029       5.26651191       0.00677444       0.00630595       0.00586069       5.57518170      -0.13500190      -0.27777082      -6.44890261 F F F
 C              8.07808417       8.48236309       9.34186221       0.00650110       0.00267568       0.00058253      -2.91253727      -3.33113698      -1.62095094      -6.25251258 F F F
 C              8.35881463       6.60277457       1.99694154       0.00505166       0.04065271      -0.02140534       1.49216897       0.49463527       1.72666254      -6.00733389 F F F
 C              5.41299534       7.72777679       2.63217170       0.00545122       0.00323486       0.00635834       0.87259782      -4.58465301      -0.38288582      -8.10541296 F F F
 C              0.21868765       4.69838295       7.71993238      -0.02518209      -0.04485400       0.01434830       2.70856595      -1.38197662      -0.11686098      -6.84129725 F F F
 C              2.60790763       1.04023748       3.28848265       0.00607839      -0.00316986      -0.00091439       1.43648999       0.03919874       1.24437293      -6.90788806 F F F
 C              3.62755989       0.33570790       3.81365442       0.00676702       0.01420424      -0.00247606      -4.36983047       2.53542850      -0.21286397      -9.11161223 F F F
 C              0.76614912       6.01804092       7.55119578      -0.03451934       0.01470729      -0.01792680       3.40365066       0.78282801       0.44769211      -7.91162389 F F F
 C              0.24275748       7.44307427       2.95273865      -0.00127000       0.02191371      -0.00709729       5.05627028      -1.99528544       1.63896961      -7.45509944 F F F
 C              5.59684823       6.78026604       5.43974713       0.00876721       0.01130004       0.00634303      -3.87734728       3.94591642      -9.03635339      -7.34775098 F F F
 C              9.00691233       5.55177869       7.68273955       0.01459305      -0.01506151      -0.00567356       5.16875697      -4.98864194      -0.41742678      -8.29408141 F F F
 C              5.07350670       5.07263497       6.00319132      -0.02609786       0.01434255      -0.03168933       1.98820456      -2.94615508       1.91491037      -6.84420812 F F F
 C              1.70025134       6.89561717       3.21850881      -0.02832151      -0.03650427       0.00471426      -5.71526560       2.76104153      -2.87603251      -5.98707279 F F F
 C              6.99259693       6.96201677       7.19149082       0.02189235      -0.02231962      -0.00238259      -0.53163419       0.58115107       2.07906524      -9.01207396 F F F
 C              0.98411986       3.43475581       7.76313049       0.00582511      -0.00997679      -0.02105525      -3.31088528       3.16976751       3.55048741      -6.54353232 F F F
 C              8.12603254       6.33760832       7.84415586      -0.01663367      -0.00140750      -0.01311385      -5.18734281       5.49606759       1.85248281      -6.72676508 F F F
 C              7.77536606       7.77221211       1.89207408      -0.01591256       0.00761560      -0.00873235      -0.96446977      -1.88004651      -2.38272472      -7.56014495 F F F
 C              1.52865394       6.91362661       8.24237584       0.00552988       0.02372002      -0.00929555      -2.20831161      -2.91451183      -2.71571340      -6.88867123 F F F
      50
 Properties=species:S:1:pos:R:3:velocities:R:3:forces:R:3:local_energy:R:1:fix_atoms:S:3 Lattice="9.9905032156        0.0000000000    0.0000000000    0.0000000000    9.9905032156    0.0000000000    0.0000000000    0.0000000000    9.9905032156" temperature=4809.49847290 pressure=-10561.72884202 time_step=0.5000 time=20.000000 energy=-249.157837 energy_soap=-305.63333004  energy_2b=55.14171865 energy_3b=1.33377477 energy_core_pot=0.00000000 energy_vdw=0.00000000 energy_exp=0.00000000 energy_xps=0.00000000 virial="-28.04080686          4.66603623     -2.56668978      4.66603623    -38.34437192      1.95201972     -2.56668978      1.95201972    -14.25907358" stress="0.02812085           -0.00467936      0.00257402     -0.00467936      0.03845382     -0.00195759      0.00257402     -0.00195759      0.01429978" volume=997.153669 step=40
 H              3.92489461       9.79740842       6.85003020       0.13092601       0.15505241      -0.00256928       1.95797478       0.75771348      -0.51014594      -2.90948855 F F F
 H              1.22364396       2.06677049       7.42115621       0.02016605      -0.04606320      -0.01976668      -0.80391566       3.36916700       1.24639892      -3.06882692 F F F
 H              4.67257006       0.09063041       6.63721789      -0.12284948       0.03426310       0.03121055      -1.90544554      -0.80348050       0.09918565      -2.94203824 F F F
 H              1.98602236       5.83409038       9.74613215      -0.03624945      -0.00330371       0.18597471       0.09843195       0.92163463      -1.21596279      -1.65504992 F F F
 H              2.85317998       5.31730020       2.09786012      -0.06817259      -0.09657768       0.01956188      -0.90577268       0.93636586      -0.41052978      -3.07775788 F F F
 H              2.51526116       7.36470814       7.35992361      -0.04260051       0.00458029      -0.12382018      -0.69643720       0.16013647      -1.00926317      -3.45651868 F F F
 H              5.40041697       8.95306345       2.71937682      -0.03186990      -0.00123103      -0.00394366       0.22548874      -1.40394188       1.32391620      -2.17418353 F F F
 H              8.03859827       8.93949452       1.61065749      -0.06663525       0.04972423      -0.09280838      -1.94592696       0.82193336       0.38766801      -2.69515453 F F F
 H              2.51895968       7.14317680       8.77927742      -0.06904621      -0.06952231       0.05484482      -2.07119957      -1.15350806       0.26752110      -2.81618178 F F F
 H              2.40434027       5.88381999       1.70675239      -0.01519926       0.04275088      -0.01728709       0.59494377      -0.86246896       0.67142591      -2.73113515 F F F
 H              6.95670041       6.73692376       9.41941542      -0.02399858      -0.00794725      -0.07146569      -4.55001188      -1.67166164       2.46973560      -1.98952442 F F F
 H              3.50920001       2.51980442       1.54369453       0.04693780       0.04509393      -0.08251123      -2.22500288      -1.03443075       2.82142857      -3.52904282 F F F
 H              6.41594578       8.95615462       4.03059115       0.03872311      -0.03442016      -0.04391486       7.82631300       0.91404128       1.51143376      -2.20886189 F F F
 H              3.02461754       6.31551422       5.43835412      -0.02251831       0.09445693      -0.04981977       1.92360811      -0.67869813      -1.22967931      -3.12377783 F F F
 H              1.04841930       8.69293847       2.33406748      -0.14762011       0.03904527       0.03132471      -1.99478074      -2.99820412       1.82019949      -2.81435250 F F F
 H              5.93064965       0.92404436       4.11985695      -0.00134562      -0.02884586       0.08222336      -2.26451742      -2.03810845       0.57911010      -2.63266267 F F F
 H              5.61396251       2.74958194       3.70968949      -0.04246317       0.06519876      -0.00117742       3.14994880       0.96050262       2.04112747      -2.49057098 F F F
 H              6.70737147       7.89961150       0.88773698       0.06487047      -0.00181539      -0.00365179      -4.61151910      -1.03722006      -2.52319444      -2.54175637 F F F
 H              1.40434155       7.02443927       3.94401454       0.03131199      -0.06625992       0.06661927       2.63067118      -0.37203734       2.12657446      -2.23166129 F F F
 H              1.62437009       2.75058271       2.20945111      -0.00711193       0.00047012      -0.00821386       1.49222668      -0.78513961       0.46841883      -3.71742421 F F F
 H              8.35717123       5.22217859       9.81287432       0.10637039       0.06859695       0.08938676       0.19596347       0.22556676      -0.20500887      -1.53989635 F F F
 H              2.27453487       3.89103863       7.37090033      -0.07715041       0.01703291      -0.11439227      -3.09981940      -0.81868002       1.20531922      -2.76774979 F F F
 H              6.44766757       3.03863524       4.21856337       0.02288897      -0.06594326       0.01975633      -3.24613697      -0.57199666      -1.89679985      -2.55163490 F F F
 H              4.33856848       4.50958870       6.53239220       0.07863173       0.01825062       0.03005423      -2.03968365      -2.30590527       2.33318700      -3.20572635 F F F
 H              7.36077604       9.56114624       9.73485875       0.06525401       0.03504509      -0.07811212       0.64815758      -2.20281893      -1.02385485      -3.37450776 F F F
 C              7.76590571       7.10472172       9.06296588       0.02667178      -0.02484885       0.01178288       3.44284407       4.40818363       0.26294918      -8.17595868 F F F
 C              9.23646790       6.85770866       2.98584926      -0.00533482       0.01637430      -0.02881388       0.45785398       0.30588113      -0.62755175      -5.89427815 F F F
 C              5.56286184       8.63215851       3.89066806       0.02434820       0.01963559       0.03847883      -8.15688082       2.76511087      -4.17295885      -8.45396857 F F F
 C              4.83345933       6.73609851       4.00723932      -0.00361400       0.03107076       0.00448773       4.04559887       3.03986162      -5.34255098      -3.28110553 F F F
 C              2.61093159       2.23385478       2.42254674       0.00613776      -0.00242153      -0.03707095      -0.39490143       0.15479306      -1.27826052      -6.66103674 F F F
 C              6.27878731       5.65354768       6.41005034      -0.00651990      -0.03093822      -0.01990372      -1.65095901       2.06678551      -0.10095290      -7.03014128 F F F
 C              4.83907216       0.03229675       4.21607536      -0.00500521      -0.01370452       0.01699605       1.49699709       0.10269510      -0.10086585      -8.06171157 F F F
 C              4.15486134       6.11293856       4.86984979       0.01076879       0.00768021      -0.01598832      -3.17395172      -3.96061654       6.65555649      -7.35147796 F F F
 C              7.86814711       8.49719565       9.46781401      -0.02124422      -0.00297582       0.01127054       0.06244751      -1.06137699      -0.39211357      -7.11540705 F F F
 C              8.65030022       7.24887016       1.83599637       0.00043208       0.02798517      -0.00491799      -4.19928756      -0.43347291      -1.63562237      -8.58058586 F F F
 C              5.37023293       7.03909123       2.74152040      -0.01147699      -0.04775481       0.02453223      -0.81970312      -0.39859462       1.93722233      -7.51419233 F F F
 C              9.75640421       3.99158383       7.86523326      -0.01804523      -0.02978912       0.00313016       3.29108607       1.05236939      -0.48545818      -7.08546088 F F F
 C              2.60316555       1.16206208       3.38261701       0.00317555       0.00604845       0.01136686       1.73615078       2.22146853      -2.11280611      -6.61059084 F F F
 C              3.68816571       0.57039876       3.85484882       0.00206402       0.00497021       0.00631196       0.78215081      -0.90067777       0.29779841      -8.11488862 F F F
 C              0.44704898       6.43171653       7.33943465       0.00140607       0.02611210      -0.00131671       1.79530146      -1.55940506       1.61795879      -7.52058256 F F F
 C              0.36808709       7.62334319       2.97299793       0.01158906       0.02177454      -0.00702763       2.08454249       2.48126088      -2.27567228      -6.36095836 F F F
 C              5.52830332       7.03504334       5.20449050      -0.00982137       0.00535432      -0.01505004       0.32808744      -0.41010997       0.27794998      -9.21758014 F F F
 C              9.49883705       5.42084690       7.62808124       0.02153531       0.01495361       0.00229665      -1.15253614       1.26344287       1.06836986      -7.26493300 F F F
 C              4.97386508       4.96537591       5.87996124      -0.00111563       0.00851427       0.00259412       4.00074558       6.29015800      -2.60267991      -7.19784417 F F F
 C              0.92538430       6.39483162       3.22016241      -0.03213515      -0.02865641       0.00526502      -1.37899833       0.81597280      -0.98793813      -7.42257140 F F F
 C              7.03445187       6.66038826       7.08344106       0.00243299      -0.02546702      -0.00346815       0.18751989      -4.50085285      -0.55569099      -7.96645963 F F F
 C              0.99615470       3.35268459       7.82339292       0.00720838      -0.00088652       0.01173832       0.30352322      -1.09699120      -2.23556619      -6.60820965 F F F
 C              8.28761538       6.28445979       8.12865998       0.01710173      -0.00425815       0.02131517      -0.74008867      -0.79878194      -3.99386759      -7.83524204 F F F
 C              7.31919047       8.08002365       1.62688725      -0.00818428       0.01211003      -0.00567078       7.69094560      -0.01899137       4.93676037      -6.76442057 F F F
 C              1.53712926       6.99848703       7.79312627       0.00181640      -0.01170759      -0.02371866       1.57795351      -0.15687322       0.49777948      -6.82274573 F F F
      50
 Properties=species:S:1:pos:R:3:velocities:R:3:forces:R:3:local_energy:R:1:fix_atoms:S:3 Lattice="9.9905032156        0.0000000000    0.0000000000    0.0000000000    9.9905032156    0.0000000000    0.0000000000    0.0000000000    9.9905032156" temperature=4787.20905786 pressure=19220.03742527 time_step=0.5000 time=40.000000 energy=-250.576034 energy_soap=-308.00056592  energy_2b=55.18914559 energy_3b=2.23538661 energy_core_pot=0.00000000 energy_vdw=0.00000000 energy_exp=0.00000000 energy_xps=0.00000000 virial="-2.66304403           0.61680110     -3.78766691      0.61680110    -10.38094394     -5.84889668     -3.78766691     -5.84889668    -11.71168947" stress="0.00267065           -0.00061856      0.00379848     -0.00061856      0.01041058      0.00586559      0.00379848      0.00586559      0.01174512" volume=997.153669 step=80
 H              3.88833367       2.03618039       7.87514319       0.01450945       0.10931303      -0.01345821       1.71293717      -0.20058138      -4.22136749      -2.01879030 F F F
 H              1.28536628       2.58124755       8.13130194       0.00738369       0.12030187       0.01847690       3.48982189      -5.25475973       2.65879900      -3.26016816 F F F
 H              4.42366063       1.94678517       6.72193630      -0.06024539       0.12234243       0.10225134      -1.59846404       0.23206344       3.62135474      -2.24393387 F F F
 H              1.60767306       7.21124449       1.88133266      -0.00455643       0.13862541       0.05218439      -0.64960743       1.39864054       0.94375089      -1.74396221 F F F
 H              1.46308821       4.17072079       2.19455790      -0.08211171      -0.09480391       0.02944665      -0.70890644      -0.53700122       0.48299689      -2.33973042 F F F
 H              2.12593813       7.67946123       6.69743587       0.06942281       0.04390316       0.04930352       1.26495463       0.17124550       0.87645717      -3.72342001 F F F
 H              5.15370190       8.16439010       3.17648898      -0.09553863       0.00003826      -0.00693827      -0.58149141       2.93331920      -2.07182439      -1.50626678 F F F
 H              6.54232400       9.21477945       1.55195856      -0.02490394       0.04592713       0.00571950       0.95456641       0.08512406      -0.84641697      -3.50200303 F F F
 H              1.91886325       6.40144450       8.52608326       0.17208550       0.05142669       0.01946445       2.32895496       1.99247970      -1.85709477      -3.07668268 F F F
 H              2.01389132       4.59044961       1.95312890       0.02265640      -0.05983417      -0.02460108       1.20398117       1.09922925      -0.37134925      -3.43932306 F F F
 H              7.08099743       6.48112823       9.71353941      -0.02697386      -0.10757973       0.10567205       0.27608858      -1.38387180       0.50571319      -2.33557478 F F F
 H              3.48289377       2.35750409       1.74488639       0.02866680      -0.00677926      -0.02998091       5.21659545       3.29364167      -4.14576473      -2.76879318 F F F
 H              6.82297172       9.17961031       4.15711946       0.07190910       0.13613557       0.05505858       0.71640369       0.38079744       0.01863042      -3.54654493 F F F
 H              3.14678559       5.60314577       4.82317227       0.07168893      -0.10043760       0.03672395       1.60699217       1.57976080      -0.36052257      -3.20043879 F F F
 H              9.91317578       8.97516164       3.59395666       0.07430641      -0.08968994      -0.01642870       1.79568968      -1.76087762      -1.56148482      -2.45694353 F F F
 H              5.07583394       0.21461761       5.52102454      -0.07277615      -0.01413521       0.00470960       0.53869935       2.56461154       6.32244358      -2.37527624 F F F
 H              6.09014425       2.69314613       4.57584952      -0.07129884      -0.05566606       0.00273916      -3.06045252       1.69458045      -1.25338872      -2.73450713 F F F
 H              6.30051901       7.50267402       2.31064719       0.01436744      -0.04054862       0.06111267       0.07096825      -0.89423857      -1.31321136      -1.74859643 F F F
 H              0.23141904       5.25883014       3.32369046      -0.18975058      -0.03790716      -0.10292496      -0.14431676       0.00746711       0.18812927      -3.59143264 F F F
 H              1.68860741       2.46864489       1.75253188      -0.02887823      -0.06515563      -0.05158209       0.73472414      -1.89972279       0.03577153      -3.84064322 F F F
 H              9.95262976       7.56035952       1.37636950       0.01851481       0.11248958       0.06774559      -0.10327940      -0.67772379      -0.24799516      -1.08128490 F F F
 H              1.06716082       3.52850504       6.47808629       0.08062093      -0.07528688       0.04402201       0.58886195      -0.55547297       2.17562446      -3.31508654 F F F
 H              5.36670093       3.20755341       4.22598562       0.02317331       0.04096126       0.07710373       2.80810618      -2.20126596       1.65112957      -2.70618557 F F F
 H              4.37085302       4.23882362       5.88319104      -0.00830219      -0.00501744      -0.03634456       1.31397198       1.27275759       1.34420708      -2.66834337 F F F
 H              7.60692718       8.51166086       8.58026221      -0.08037339       0.04342877      -0.00407730      -0.97008773       2.41913777       0.47013505      -2.91552170 F F F
 C              8.05144399       6.92621721       9.33865548       0.00768101      -0.01667021       0.00102821      -1.00984759      -4.93240496      -1.39923566      -8.09771393 F F F
 C              9.42767199       7.14165056       2.43010916       0.01294412       0.01569030      -0.03564586      -1.87039051       1.16548046      -2.41094174      -5.85007863 F F F
 C              5.79059140       9.01055500       4.28149545      -0.00665806       0.00528765       0.00860898      -2.64741949      -1.39381584      -1.16435004      -7.87779009 F F F
 C              5.01567179       7.42669846       3.82419003       0.02326703       0.01065827      -0.01679172       1.50887751      -7.22587342       3.11315744      -6.68209627 F F F
 C              2.66977133       1.97259077       2.07155439       0.00088975      -0.01615016       0.00448699      -6.03856971       0.12082460       1.14126660      -7.01237213 F F F
 C              6.29095886       5.43894968       6.12698003      -0.00045146      -0.00340611      -0.01521442       1.44980525       0.65078132       3.19218041      -7.73827919 F F F
 C              4.80167058       9.95156576       4.62534966      -0.00067956       0.00820734       0.02106446      -1.67144756      -0.05723715      -5.51862217      -8.05759521 F F F
 C              4.23826963       6.05187219       5.04892674      -0.00955800       0.01472894      -0.00371183      -4.69554396       2.92663110      -4.07837751      -7.03244035 F F F
 C              7.69019178       8.16503838       9.61887714       0.00476136      -0.01585979       0.00795108      -0.11446279       3.21435078       1.36800302      -7.43705856 F F F
 C              8.38151676       7.69830341       1.71524440      -0.00213858       0.01466804       0.01023788      -1.67912490       0.95180871       1.39591223      -8.45707223 F F F
 C              5.22016193       6.15252743       2.85600844      -0.01008931      -0.02229494       0.01120834      -0.58322468       4.46576067       2.92746453      -5.71103894 F F F
 C              9.69323331       3.81957094       7.97675977      -0.00239965       0.01853349       0.01250674      -2.26266971       5.17757617       0.67664707      -6.64267648 F F F
 C              3.03953459       1.48685022       3.19809831       0.03884714       0.00660487      -0.01447158       1.68965579      -4.61807794       4.23825394      -6.76892499 F F F
 C              3.77168792       0.63860723       3.93855166       0.00863094       0.00741504      -0.00002785       0.74704033       1.05740291      -0.57496122      -8.63944437 F F F
 C              0.41725972       6.59384990       7.29977021       0.00853705      -0.00371733      -0.00430257       1.88251358      -1.61115486       0.10191612      -7.87396030 F F F
 C              0.51246200       7.79732593       2.93432647       0.00259791      -0.00106801       0.01653704       1.56475608      -0.46472079       2.86370040      -7.69411608 F F F
 C              5.50224464       7.16572019       5.19166125      -0.00307487       0.00721437       0.00161146      -1.47367929       0.88900596      -2.68606672      -8.11759092 F F F
 C              9.55939114       5.54356193       7.83549738      -0.00698037      -0.00722333       0.01065459       2.95595636      -1.82291040      -0.89003410      -7.62326641 F F F
 C              4.91918151       5.41034179       5.89857071      -0.00511618       0.00154466       0.00580403       3.99711911      -6.01934763       2.23461702      -6.19919379 F F F
 C              0.25868517       6.32224535       3.41922794      -0.03367803       0.01699114       0.00846414      -0.91619767       2.18992944      -1.37837860      -7.27483672 F F F
 C              7.25620140       5.69303536       7.02304027       0.04135853      -0.04661517       0.02094687      -0.32325589       0.44281614       0.07494297      -8.70540496 F F F
 C              0.87473462       3.34216511       7.70537906      -0.01460258      -0.00796404      -0.02326406      -1.65767774       4.05885686      -5.95956334      -6.49157770 F F F