      50
 Properties=species:S:1:pos:R:3:velocities:R:3:forces:R:3:local_energy:R:1:fix_atoms:S:3 Lattice="9.9905032156        0.0000000000    0.0000000000    0.0000000000    9.9905032156    0.0000000000    0.0000000000    0.0000000000    9.9905032156" temperature=4865.27906250 pressure=32636.08777200 time_step=1.0000 time=1000.000000 energy=-239.494090 energy_soap=-323.57997460  energy_2b=82.99630080 energy_3b=1.08958334 energy_core_pot=0.00000000 energy_vdw=0.00000000 energy_exp=0.00000000 energy_xps=0.00000000 virial="4.57449204           -1.29488717      3.93247176     -1.29488717      8.73599701      5.10976664      3.93247176      5.10976664    -14.00569860" stress="-0.00458755           0.00129858     -0.00394370      0.00129858     -0.00876093     -0.00512435     -0.00394370     -0.00512435      0.01404568" volume=997.153669 step=1000
 H              5.29125658       3.80322898       8.15378990       0.08475508      -0.01988170      -0.05250148       2.05398777       0.33489174      -1.76291400      -2.90223209 F F F
 H              5.21644062       2.37324159       5.64720762       0.07908050      -0.02453320       0.00478373      -0.66383101      -2.29511957       2.31359017      -1.92477305 F F F
 H              1.63511999       6.66028986       5.26267650       0.01455578       0.09413266       0.00995791       0.40269870       0.30628497       0.23499494      -1.60400109 F F F
 H              1.13670850       3.53281816       2.00340394      -0.03924587      -0.09532049      -0.00209663      -0.09979370       1.74904842      -1.01393860      -3.54774370 F F F
 H              5.86344737       3.10198764       1.11769062      -0.09785543      -0.03402503      -0.04379332      -1.18932317       0.31433361       0.33405235      -1.32746566 F F F
 H              9.14108314       7.72384406       1.67562078      -0.05814479       0.02232283       0.00308707      -0.59702658      -0.27015967      -0.84718463      -2.08677777 F F F
 H              3.25108598       8.79283353       9.24309400      -0.08210732      -0.07321641      -0.02081807      -4.61502374       0.34716967       7.96354868      -3.20140973 F F F
 H              1.64856108       1.00911617       3.87653292       0.11182492       0.02474232      -0.01209676       3.02942520      -1.40781518       1.14957895      -3.38593856 F F F
 H              5.79119035       6.99149340       2.12410143      -0.01237341      -0.06504504      -0.04086860      -1.96887976       0.76665000      -0.58486634      -2.96475676 F F F
 H              6.83626039       6.61108070       3.17331779      -0.09150108       0.18593151       0.11948408      -0.77408615      -1.49217638      -1.35034596      -2.66530468 F F F
 H              2.55690395       2.03771468       5.48564207      -0.02407993      -0.05861017       0.05719599      -2.12638112       0.23979101       0.50572209      -2.21104144 F F F
 H              3.54000192       8.78454301       8.72472889       0.02162484       0.00178857       0.00631136       4.00479672       0.33865306      -7.64275019      -2.06617304 F F F
 H              0.18201858       2.36644116       4.64216465       0.09349500       0.00392735       0.02747977      -0.89420406      -1.50264868      -0.64629030      -2.44059957 F F F
 H              2.68081780       1.96379938       8.69561403      -0.12830716       0.05686214      -0.00050408      -0.27939775       0.00257959      -2.81153930      -3.57885764 F F F
 H              1.09279151       4.06876041       9.38837053      -0.02144770      -0.04067527       0.03501723       0.09685300       0.85293551      -0.63480211      -3.05581492 F F F
 H              0.73346279       9.96451110       2.26616101      -0.03352509       0.09459374      -0.02539732      -0.43301814      -0.97337795      -1.07427048      -2.79504506 F F F
 H              2.40466550       5.36968101       0.13078374      -0.02477972      -0.01321551      -0.18055912      -1.92797714      -0.30312834      -0.40952460      -2.07268884 F F F
 H              6.89375463       7.33759935       9.46317790      -0.12408740       0.01400122       0.06284510       0.35282153       0.39123229       1.45848445      -1.59396493 F F F
 H              4.57727159       7.38932037       8.18561168      -0.07707479      -0.07823530      -0.03686987      -1.03291005      -1.87229053      -2.52224941      -2.69474600 F F F
 H              1.05610590       1.28019438       3.58696820       0.06228679       0.01498378       0.00082687      -1.49322552       0.72601467      -1.47463723      -2.36370212 F F F
 H              8.51831641       8.34600621       3.29144910      -0.03909235      -0.00722860       0.06159559       0.65009703       0.18944369      -2.52754018      -3.00228046 F F F
 H              0.22734220       9.33706398       2.04677606       0.11876969       0.07446642       0.07393084      -0.37314768       0.46931575       0.25720084      -3.02812163 F F F
 H              0.08324585       2.94041734       5.02213643       0.05673191       0.05709575      -0.01069540      -0.75210002       2.57595175       1.47590225      -3.05513733 F F F
 H              5.53651905       1.19002450       2.54299052      -0.01305298       0.02666670       0.03804574       1.51266436       1.31840694       0.76872170      -2.53361963 F F F
 H              1.12623851       4.14379074       5.98319542      -0.06180018       0.07104733       0.01187972       1.41937560       0.90437379      -0.34388455      -2.01136533 F F F
 C              6.36212619       5.41509950       6.91687857      -0.00778285       0.00207247      -0.00365046      -1.22918917       3.82308680      -0.83347213      -5.74182337 F F F
 C              6.51173629       1.92170575       2.58984084       0.02284242      -0.02227368      -0.01476999      -2.28087163      -2.28717264      -0.09031840      -8.71076706 F F F
 C              9.95066822       5.52746119       0.52133546      -0.01288566       0.01995816      -0.00838315      -8.87607188       6.28422207       4.73990573      -6.87818537 F F F
 C              3.81676245       3.75568689       5.46918381      -0.02395713      -0.01828271       0.00060369     -13.21991458      -2.59895850      -1.57186517      -4.36621579 F F F
 C              4.46598058       5.70654654       6.46165302       0.00516768      -0.02133583      -0.00205011       1.82510625       2.00274449      -1.37844755      -7.14271669 F F F
 C              7.45498567       9.60261423       2.02829714       0.01464467      -0.01019957       0.01524903       1.60918525       0.48045525      -2.44774139      -6.17844512 F F F
 C              2.82544806       2.19960456       7.56406256       0.00483705      -0.00610691      -0.02013695       0.19950534      -0.08958774       5.79772974      -7.71071305 F F F
 C              7.58167591       1.01370651       2.03849178      -0.01934838       0.01430461       0.05893880      -2.50492184      -0.83328145       0.64814364      -7.55208197 F F F
 C              4.22132521       6.33709063       4.40373769       0.01097618      -0.02180827       0.00020123      -1.10056408      -1.74275002       2.95704484      -5.51373777 F F F
 C              2.86957250       2.74077150       6.39485242       0.00659074       0.02172486       0.01607883      -0.74029060      -1.88785138      -4.57576058      -6.02221232 F F F
 C              8.95090418       6.36796029       0.98080709       0.01740571       0.00554242       0.01478838      -1.53629895      -0.71012255       0.08016025      -8.07940194 F F F
 C              2.38687571       5.06904117       5.22951844       0.02500782      -0.01059717      -0.02306360      -1.10066285      -2.40019534       0.67454574      -7.54633165 F F F
 C              3.91254114       6.72365367       7.10587305       0.02896171       0.01174218       0.01508538       1.35385138       0.81526887       1.65347622      -6.54363681 F F F
 C              6.91536884       4.22096027       2.15713203       0.02187983      -0.01163237      -0.01513785      -2.19381901       2.92761791       1.28965106      -7.47754878 F F F
 C              3.01243540       6.00486747       5.88905130      -0.02369773       0.02183986       0.01351091       1.35388223       3.59271265      -0.99159779      -6.42516709 F F F
 C              7.11898034       8.59242053       0.94825296       0.00882292       0.02274728      -0.01258479       1.46735246      -0.24468390       1.78225921      -7.42859328 F F F
 C              6.35648238       6.10906231       2.03790318       0.03642834      -0.00711184      -0.00906657       5.92726372      -1.34672908       0.92295347      -6.35383543 F F F
 C              5.94567460       3.25911082       2.57310897      -0.01948967       0.00684434      -0.01340895       4.73394966      -0.66918257      -3.71902077      -6.28464048 F F F
 C              4.23603034       2.79614191       6.25663374      -0.01787225       0.00642855      -0.01214851       6.34923636      -3.02087060       0.10890794      -8.11867573 F F F
 C              0.98867616       4.57714298       1.50139395       0.00773011      -0.03720015       0.02076883      -0.52205191      -0.69651956      -0.82817444      -8.28745631 F F F
 C              0.92638733       4.95845247       0.05215886      -0.03641847      -0.01404804       0.00030009      10.73470116      -7.16240393      -1.42195539      -6.20125466 F F F
 C              8.63421212       8.64149156       2.11490896       0.00808864       0.01745899      -0.02123201      -1.33787696       0.59910430       3.58119581      -7.85914148 F F F
 C              7.60731072       6.44108574       1.13817881      -0.01614954      -0.00760611       0.00644972      -1.18716721      -0.41402538      -0.02378462      -8.40439203 F F F
 C              6.13218085       4.22197002       7.26661486      -0.00923727       0.01296071      -0.00677285      -2.34580926      -4.67628081       2.45533307      -6.24633393 F F F
 C              4.88061185       4.33401502       5.48890253      -0.00854786       0.00501938      -0.00682161      10.31908179       8.54504295       0.37577296      -8.30722131 F F F
