      50
 Properties=species:S:1:pos:R:3:velocities:R:3:forces:R:3:local_energy:R:1:fix_atoms:S:3 Lattice="9.9905032156        0.0000000000    0.0000000000    0.0000000000    9.9905032156    0.0000000000    0.0000000000    0.0000000000    9.9905032156" temperature=8332186.09017248 pressure=**************** time_step=0.5000 time=0.000000 energy=63.818796 energy_soap=-98.92911027  energy_2b=161.27563476 energy_3b=1.47227197 energy_core_pot=0.00000000 energy_vdw=0.00000000 energy_exp=0.00000000 energy_xps=0.00000000 virial="340.11515351       -174.17871344   -104.87269455   -174.17871344    167.93781649     48.29695821   -104.87269455     48.29695821     29.14937316" stress="-0.34108600           0.17467590      0.10517205      0.17467590     -0.16841719     -0.04843482      0.10517205     -0.04843482     -0.02923258" volume=997.153669 step=0
 H              4.70653458       1.71172872       2.84851964      -0.00528294       0.14052975      -1.56311112      -0.85978175      -2.95484927       2.74232746      -1.30059273 F F F
 H              5.71248057       0.61648975       8.72057308       0.43319767      -0.96429739       3.26331761      -1.78994106      -0.02059917       1.16978020      -1.59164534 F F F
 H              2.72343773       3.32500486       7.54277692       1.98508722      -0.96210267       1.62235773       1.92596343      -2.32379325       1.03369044      -2.57365027 F F F
 H              3.66181416       4.14255141       1.17813857       0.13333181       2.62197273       3.18419802       0.65474403      -0.52366365       1.27434660      -1.24625691 F F F
 H              4.32751554       4.68414506       0.12071040      -2.99151058       7.54229420       1.59038635     -65.01907659      49.23128001      36.95861057       4.23661179 F F F
 H              9.73813291       7.59439170       6.79163929       4.73103293      -3.57351652      -5.53292994      -0.97900901      -2.27243330       1.48495338      -2.15941288 F F F
 H              2.76835022       9.37016910       1.57991937       0.09652981      -0.55780902       2.05375707     100.51988647      18.41571573      17.04696073       6.85556589 F F F
 H              1.67055597       5.82325256       1.55783151       0.06782751       4.93933399       0.22653593      -0.07142429      -0.89262768       0.47963044      -2.20244351 F F F
 H              2.20444718       3.77218472       7.64404273       0.81346087      -1.65049385      -1.75580229      -4.89779248       4.10715920       1.38311215      -2.29511968 F F F
 H              5.66359124       0.90337574       1.21701061       2.54562078      -1.29232746       0.29641983       2.30054329      -1.33297528       1.62915522      -1.52797673 F F F
 H              3.25361525       4.79245831       2.78408953       2.86477283       0.42925045      -2.48991731       1.01614389      -0.09265590      -0.49528496      -1.52558125 F F F
 H              5.12520836       4.86097952       0.79014667       4.78108085      -0.90559495      -2.56276245       3.22867625       1.95717077       1.58207410      -0.20307484 F F F
 H              1.31991491       3.49278644       1.89129311      -0.70748339      -3.78933107      -2.00193065       0.07910997       2.10459454       0.22842047      -2.14919840 F F F
 H              9.23976332       6.24898557       6.88268338      -5.76048094      -1.24869199      -5.04021368       0.80522643       0.95013897      -1.06942211      -1.80128397 F F F
 H              2.46648846       9.26762974       3.93363811      -4.95702295      -2.34341571      -0.09076667      -0.80393270      -0.86549524      -0.48559804      -1.53614334 F F F
 H              7.49204585       0.65567387       0.77528472      -2.40095655       1.71489136      -0.12309310    -148.99912607     161.96333489     -88.78041280      15.80312084 F F F
 H              8.31110522       8.26928960       7.80758280       2.49339258       3.03120637       3.59594580       0.77905086       0.21030468      -1.12259035      -1.22515462 F F F
 H              0.36114432       8.97699958       8.02459793       5.14928506      -0.72019983       3.27654081      -0.49805382      -0.91935734      -0.72052831      -0.84785081 F F F
 H              3.04813115       7.48493034       9.49070628       0.80886110      -3.31880546       3.27830779      55.13345225     172.70870803     -11.96772918      11.85928121 F F F
 H              1.69912594       6.51151197       6.99978790      -6.31763777       0.74169276      -2.77598224       0.47482039       0.26354125       0.80490975      -0.97564925 F F F
 H              5.99144753       5.87707740       0.03498463       4.12477259      -1.49113964       0.34403514     377.60381752    -197.81549676    -167.59372635      30.94450379 F F F
 H              1.57368903       8.66048174       3.90809747      -0.61884826      -3.55944840      -3.20165877       1.83410690       0.78142955      -0.79518590      -2.03311455 F F F
 H              1.49451308       4.71816097       2.10923903      -2.86123025       0.50715209      -3.96181522       0.24390812      -0.27650342      -0.80140276      -2.23834955 F F F
 H              6.22595584       4.25584209       1.97865808      -1.96430392       0.51269686      -1.02962959      -0.68910161       0.41992265       0.22524546      -0.24231064 F F F
 H              4.12312982       8.43356929       5.29579262       1.83534060       6.46112312       1.62158594      -0.90621545       0.08911520      -1.93055488      -0.80069599 F F F
 H              4.79853999       2.24988501       2.48457245      -0.35576966       0.05600148      -0.21906356       0.36855843       5.21758090      -2.06596614      -2.17958809 F F F
 H              3.26576212       1.06027763       3.79299487      -1.08922124      -4.69762023       1.06399892      -5.23284970       3.68642849       4.80676856      -2.04300052 F F F
 H              8.71565580       0.30010494       3.26846595       1.62629438       0.20385954       1.22207869      -0.92733658       0.06927290      -1.16827228      -0.64402605 F F F
 H              3.87671234       5.83848326       6.96639314      -7.88898569       1.95814338      -3.39014864       0.33748805      -1.35795732       0.70806845      -0.98285167 F F F
 H              5.33294323       1.16023523       4.54479665       0.52081217      -0.20497715       1.69724768      -1.15219650      -1.24837328      -0.56060213      -1.36121236 F F F
 C              7.58601325       9.30839299       5.73016011       0.49615787       0.04504427       0.11272619     243.68145859    -134.42841359    -103.73969720      21.12514840 F F F
 C              5.59970573       4.62806081       3.21810154      -0.06783792      -0.09357264      -0.66085371       2.16635351       0.05505634      -0.06123616      -5.20576377 F F F
 C              5.76916943       4.55731007       7.20733280       0.47931442       0.21852595      -0.17179223       0.11840366      -3.12612158       2.06281953      -2.63204196 F F F
 C              8.26178486       6.51284863       3.83013647      -0.39838153      -0.80818333      -1.02997107      -3.32873763      -4.29400126       0.32997874      -1.84191533 F F F
 C              3.77571937       0.55548722       3.23637462       1.28243423       0.45177664      -1.27113972       5.75453278      -5.03082991      -3.91351830      -7.79270943 F F F
 C              2.89871974       7.01601692       9.52414755       0.33997563      -1.13547750      -0.58083263     -54.61943181    -173.40520524      12.13839109      10.20908469 F F F
 C              2.20602742       9.25913314       1.47853799      -0.45459968       0.00581192       0.00551854     -97.68943522     -20.82799046     -14.57660623       2.30716371 F F F
 C              4.31876347       0.30154502       9.46324074       0.24357483       0.52446255      -0.51015744       2.77515295       2.78584220       3.93887478      -6.07152115 F F F
 C              4.01164257       2.55604455       0.11195214      -0.16455099       0.18896478       0.00368048       1.65001714      -2.21425172       0.72677188      -7.26497402 F F F
 C              3.00004398       7.81685002       3.20050799       0.62904790       0.02848996       0.18812775      -0.66759064       3.14228713      -0.11760711      -4.98586493 F F F
 C              8.62997548       4.38159868       6.31349855       0.04851008      -0.41576759       0.31844586      -2.73141625       0.74933740       1.45175099      -2.13593466 F F F
 C              5.70391145       6.02918385       0.16195337      -0.65396480       1.25335701       0.52282312    -378.93218795     195.90512629     169.13822258      29.28066449 F F F
 C              4.69684217       0.94317349       0.92477898      -0.06011265       0.28574564      -0.04780771      -6.29096811      -0.61020695      -6.92294559      -7.49499558 F F F
 C              7.04002105       9.60990632       5.96280620       0.80483189       0.40016909      -0.86444629    -243.90706199     134.64645967     103.50984364      21.02307636 F F F
 C              4.74947910       4.37015718       9.82045558      -1.10932806      -0.04193655       1.70714434      61.43293036     -48.45199964     -39.90870340      -0.17112338 F F F
 C              5.71901758       5.60133969       2.29709052      -0.57176442      -0.50308529       1.49247855      -0.51602748      -0.65536157      -2.20434869      -9.38588689 F F F
 C              6.81980154       4.93695010       3.97249294      -0.14614766       0.36904845      -0.03027282       1.55212159       2.80033526      -0.23857638      -8.05983848 F F F
 C              7.21040150       2.89561716       7.90853639      -0.25695794      -0.07842526       0.25995844      -0.86336771       4.69803426      -3.10111741      -1.92012793 F F F
 C              7.78292659       0.35307453       0.93949650      -0.18800811      -0.53849808       0.23037098     151.12089306    -161.72304950      89.48737459      14.99567024 F F F
 C              3.67041880       2.97566881       6.86618373      -0.00763741      -0.12116113       0.94849170       4.81470245       0.70603599      -2.00044912      -2.17221345 F F F
      50
 Properties=species:S:1:pos:R:3:velocities:R:3:forces:R:3:local_energy:R:1:fix_atoms:S:3 Lattice="9.9905032156        0.0000000000    0.0000000000    0.0000000000    9.9905032156    0.0000000000    0.0000000000    0.0000000000    9.9905032156" temperature=8105687.34122242 pressure=**************** time_step=0.5000 time=10.000000 energy=116.677930 energy_soap=-74.29877303  energy_2b=186.33539287 energy_3b=4.64131045 energy_core_pot=0.00000000 energy_vdw=0.00000000 energy_exp=0.00000000 energy_xps=0.00000000 virial="83.44869171         -92.98404533     21.45318520    -92.98404533    184.40286615     93.81336245     21.45318520     93.81336245     66.82767652" stress="-0.08368689           0.09324946     -0.02151442      0.09324946     -0.18492924     -0.09408115     -0.02151442     -0.09408115     -0.06701843" volume=997.153669 step=20
 H              5.61407626       6.26296986       7.58096236       0.12737717       0.49805474      -1.49314390      -0.76040009      -1.13967259       0.00462001      -0.49978421 F F F
 H              9.73557543       1.29175905       0.80259805       0.36020191      -0.90171721       3.12496560       2.67246837       0.98747582       0.44059742      -1.88219178 F F F
 H              5.14953148       1.77748047       7.70450640       3.45646224      -1.15839507       2.06880804      -0.50198089       2.19452603      -1.64543744      -1.54239899 F F F
 H              0.52308929       1.93500237       2.17945926      -0.48883131       2.84127034       3.00620759      -0.20678092       0.32474291      -0.19615190      -1.93883254 F F F
 H              9.88127616       2.83990306       3.79167056      -1.73104909       7.93181849       3.02266658       0.99058055      -0.55742781      -0.98379539      -0.90761122 F F F
 H              6.63218650       8.79787499       4.01417456       4.75187202      -4.25342969      -5.12709451      73.92776749    -173.28139015      -1.12495925      12.34998161 F F F
 H              6.33967546       4.21970935       2.02871073       0.36384133      -0.49180992       1.99600286      -0.22327930      -0.46802350      -0.79246501      -2.16675694 F F F
 H              1.82695950       2.70389889       3.29878992      -0.42845672       4.55644723       0.12154004      -0.87101138      -0.84789536       0.14745192      -1.41953343 F F F
 H              9.81537867       7.99945765       0.62187481       0.52923575      -1.24104706      -1.73376715       1.88761361       2.18900057       1.38214890      -1.63376485 F F F
 H              2.47376348       7.19320710       5.78549245       2.65690180      -1.41570987       0.42902740      -2.89761371      -4.28257258       0.72018301      -2.51196313 F F F
 H              1.31949936       9.83595570       8.03097866       2.76942131       0.76560567      -2.59655798       0.48599506       1.15868021      -1.18388888      -0.83973132 F F F
 H              1.72832709       5.59375641       5.82396777       4.44886460      -1.07251667      -2.53780791     -30.79806151     -60.39637071     -52.49624127       4.15758869 F F F
 H              4.42726659       6.61285803       2.32729368      -1.07465331      -3.51777102      -2.03144113      -0.32096198      -1.91351230       0.34222654      -1.83662052 F F F
 H              2.14101782       5.52699442       8.32363353      -5.55832330      -1.01091999      -4.71967711       0.37524059      -0.34469226      -2.97004189      -1.13876988 F F F
 H              3.93566453       8.05853887       5.52628058      -4.73155793      -2.02970226       0.24291909       1.57176538       1.43527518       0.23488636      -1.78269992 F F F
 H              2.02897508       8.43418405       4.03284722      -2.36274280       1.51917610      -0.96451769       1.34302806      -0.13786721      -2.00298240      -2.11260400 F F F
 H              2.77473082       7.95015192       2.89676992       2.37489277       2.88274539       3.42195169      -1.09766916       1.14484045       1.31903962      -2.06718219 F F F
 H              0.85043293       1.90695914       9.94174688       4.95455794      -0.71328318       3.09975065      -0.21220196      -0.68119091       1.11798470      -1.77435909 F F F
 H              2.22232292       9.30455784       1.22403676       0.89234108      -2.72152113       3.09842397      -1.84976916      -0.11520069       0.62523044      -1.49489697 F F F
 H              0.18595774       3.95019887       9.72471402      -5.98075951       0.73409751      -2.65755720      -0.44868535      -0.62681685      -0.74905393      -0.79172859 F F F
 H              7.73172721       3.65135535       6.50770430       2.77878776      -1.08060233      -1.53320021       0.61548377       0.92739447       2.78959080      -1.47021280 F F F
 H              6.03833528       5.06219212       3.20342297      -0.69484543      -1.26840046      -1.59588071    -148.60241467     672.24949003     460.43910863      81.05649991 F F F
 H              2.92633165       8.37104750       5.35235934      -2.79130803       0.24969089      -3.39240587      -0.25658650       1.50443693      -0.02711446      -1.10602965 F F F
 H              7.93806802       9.13934878       1.52150054      -1.09602800      -0.06777995      -0.88016592     183.17763891     -94.72260230      16.47831995      13.93713366 F F F
 H              3.31914527       0.76996485       7.37774778      -0.13265298       7.20194069       1.35511728      -0.32715849      -1.75772638      -1.77222850      -1.36006440 F F F
 H              4.21362415       3.92991391       4.18856043       0.33387638       0.21352975       0.67549168      -0.84291322      -0.62775577      -1.15128433      -1.99075933 F F F
 H              3.70212112       3.04916810       4.07644022       1.14002011      -4.93842160       0.90066280      -0.22228386       1.78756462      -0.83176135      -2.27045466 F F F
 H              4.54784997       2.18292368       5.39072200       1.54055902       0.15810551       1.20354148      -0.13679372      -0.72615526       1.82864642      -0.75854222 F F F
 H              6.97448255       4.47971263       4.04422318      -7.53945195       1.76680789      -3.18520597       4.38830415      -6.41817977       0.24307061      -1.32322360 F F F
 H              0.64033875       8.98738229       1.37966416       0.54680767      -0.22793729       1.61798227       0.68182871      -1.06274910      -2.01281286      -2.13469952 F F F
 C              3.47929269       8.79870457       6.90645385       0.57523120      -0.05703972       0.11335568      -1.56444237       2.30064188      -0.22031326      -5.10920213 F F F
 C              5.20433885       3.04127841       6.59696632      -0.02865350      -0.14996135      -0.64746138      -2.87599971      -0.58580971       0.50567472      -7.86881967 F F F
 C              1.95227235       6.02580778       6.19140569       0.62335272       0.14497919      -0.08129131      34.22287851      62.26109769      55.70662246      -0.12658503 F F F
 C              6.45882126       9.25073746       4.02234399       0.00595585      -0.62083690      -0.94916990     -71.54345357     168.77955157      -0.90250841       8.89926965 F F F
 C              8.20924598       4.28256011       8.06427794       1.64902867       0.30121019      -1.69007605      -0.02497960      -0.96489202      -1.89308933      -2.40555389 F F F
 C              6.04771761       5.51896191       3.91327790       0.28242926      -1.13212576      -0.56941319     -53.39100061      21.89349202     -30.56978713       9.37913518 F F F
 C              7.51978472       9.35490439       1.48852803      -0.49405236       0.03050976      -0.00094288    -184.73228334      94.87785416     -13.81080553      12.34887508 F F F
 C              6.76396613       5.39049045       4.51491621       0.25040805       0.48905704      -0.47372855      52.69162859      -4.68505610      50.02716778      -7.03015274 F F F
 C              4.29082723       5.17230981       2.26343165       0.07583933       0.32101350       0.27544301       4.97183626      -0.20434641       1.22655576      -7.56339375 F F F
 C              9.10099756       8.08607334       4.88027929       0.54910167       0.01822488      -0.10455421      -0.12234068      -0.02247995      -0.09310957      -4.64750365 F F F
 C              4.57121346       1.04536925       1.14870323      -0.78074375      -0.27271364       0.60407052      -3.93898067       4.77158479      -3.80839414      -2.29989566 F F F
 C              8.53710295       8.75237201       5.82808666      -0.65815615       1.25808166       0.82838809      -0.82997582       1.51432467      -0.18759500      -5.01328135 F F F
 C              4.67865032       3.33502215       0.43458738       0.03478671       0.21969895      -0.04257059      -2.19676331      -3.33334939       2.08115995      -2.66418222 F F F
 C              3.97456003       4.44080270       7.50007912       0.69303916       0.46914713      -0.81230924      -0.25210489      -0.42911004      -4.13982198      -6.50556338 F F F
 C              3.96022864       3.61929664       6.12946142      -1.05640138      -0.09013641       1.56554163       1.94927321       0.37084824       6.45544013      -6.01889555 F F F
 C              9.72771950       1.33327000       6.78717175      -0.62927616      -0.41590021       1.37090405       0.47990113      -1.59046096       0.37253202      -0.82739298 F F F
 C              5.46482158       8.42446837       3.53848893      -0.09204585       0.30788944      -0.01234887       1.20026915       3.94632258       0.34596861      -5.90046427 F F F
 C              2.77302939       1.78840900       0.01813313      -0.60992004      -0.15735422       0.18299753       3.26284443      -0.80304674       2.39111895      -3.58959892 F F F
 C              6.07136426       4.90626031       3.09555169      -0.15073459      -0.65407406       0.10605888     140.57148681    -682.34393629    -483.84576260      85.69483910 F F F
 C              2.61841702       0.62232421       5.09313981      -0.19002265      -0.27947870       0.76291843       0.58105767      -1.54885572       2.18606011      -2.81949162 F F F
      50
 Properties=species:S:1:pos:R:3:velocities:R:3:forces:R:3:local_energy:R:1:fix_atoms:S:3 Lattice="9.9905032156        0.0000000000    0.0000000000    0.0000000000    9.9905032156    0.0000000000    0.0000000000    0.0000000000    9.9905032156" temperature=7656849.23567384 pressure=**************** time_step=0.5000 time=20.000000 energy=-3.425804 energy_soap=-77.87144051  energy_2b=72.76093028 energy_3b=1.68470591 energy_core_pot=0.00000000 energy_vdw=0.00000000 energy_exp=0.00000000 energy_xps=0.00000000 virial="87.92978160          47.91742538     58.18105116     47.91742538     18.96274690    -56.28396686     58.18105116    -56.28396686    114.12032895" stress="-0.08818077          -0.04805420     -0.05834713     -0.04805420     -0.01901688      0.05644463     -0.05834713      0.05644463     -0.11444608" volume=997.153669 step=40
 H              6.83520242       1.04152835       2.81425201       0.14524419       0.45268373      -1.45314845       0.18220140      -1.70026220      -2.08377329      -2.47513313 F F F
 H              3.34554278       2.52488005       1.37006379      -0.59038688      -1.36930016       2.70978589    -401.92554785    -217.24385433    -118.78263267      32.23267719 F F F
 H              9.00638784       0.60846652       7.66241767       3.30589206      -1.08015226       1.92485299       1.58126327       0.05220273       0.08310308      -2.15098730 F F F
 H              5.75711449       9.73535402       1.75167946      -0.50676448       2.71133606       2.90003230      -0.05684889       0.30119532      -0.67876882      -1.26351220 F F F
 H              3.44866168       1.81528317       3.40136044      -1.55456681       7.73329790       2.98239690       2.75685166       7.47160644      24.18798924      -0.41065250 F F F
 H              4.39704599       3.68059223       2.85238813       4.46215518      -4.34801571      -4.96588279     -41.74417173     -23.96204534      83.35407876       5.94343383 F F F
 H              1.22171202       9.52849226       1.02503318       0.51902323      -0.36249937       1.81062769       1.26069447      -0.05500516       0.11566295      -1.64193039 F F F
 H              7.69232969       7.25484811       4.42105638      -0.43019898       4.33859117       0.10544487      -0.75037217      -0.48867176      -0.31650303      -2.72464064 F F F
 H              4.81123930       6.02064972       3.81906405       0.42962643      -1.13746829      -1.61863759       0.49658893      -0.51779770      -2.71428476      -1.21349440 F F F
 H              8.03512522       3.25777740       0.02612052       2.46430520      -1.31758905       0.37149445       0.83015139       0.93633066       0.05284937      -0.80098160 F F F
 H              8.50088481       7.21218805       2.44890814       2.69350934       0.74919428      -2.53410906       1.86496775       0.80056856       1.16486155      -1.14319104 F F F
 H              6.04335518       5.75925294       9.38679186       3.23458624       0.09581004      -3.69051614      -1.68836596      -0.97136618       1.37345911      -1.55547541 F F F
 H              2.66481159       1.02544565       1.39569705      -1.14215025      -3.47558402      -2.07044637      -0.06663986      -3.28147497       0.68542739      -1.32145538 F F F
 H              0.39454915       0.38037164       4.28538826      -3.94050247      -0.43226736      -3.20277894       0.63293969       0.20698632      -0.42670517      -0.45610270 F F F
 H              7.79250844       8.05337135       8.05773836      -4.50709990      -1.93805245       0.24215531      -0.28246552       0.36366074       0.07720111      -1.08891780 F F F
 H              7.65155308       0.60071213       6.67063462      -2.61701161       0.69811213      -0.34612063       0.75431617      -1.85707556       1.06561160      -1.31279586 F F F
 H              4.36145301       3.11690873       8.44990676       1.89986699       0.64765154       6.80440689       0.31209825      -0.21690211       1.75530772      -0.78705694 F F F
 H              9.28862944       4.74324655       0.30779243       4.74932770      -0.72125355       2.93457275      -0.85609201       0.73261820      -3.97592432      -1.84941510 F F F
 H              0.08768177       3.56174951       3.25214081       0.73946297      -2.45214900       3.20440481       2.32256354      -0.86294459      -1.57163640      -1.46772312 F F F
 H              6.25737926       4.18548961       1.92619662      -3.33118698       2.77267891       0.24834281      -2.20517017      -1.46978193       1.64766233      -1.64056140 F F F
 H              9.18051844       5.34448192       9.01828436       1.78841432      -0.69366541      -3.33288883       0.52483827      -1.72306361       3.78884857      -1.61995944 F F F
 H              6.29286977       4.72180039       4.16786348       0.87372786      -0.05974991      -2.82292327      -1.54804685       0.30114444      -0.99306732      -1.08111933 F F F
 H              6.00738136       9.33334667       3.91307507      -2.54677537      -0.21783015      -2.75879311      -0.54258714      -0.10297456      -1.21885510      -1.33773854 F F F
 H              0.19590300       0.53128834       7.87105215      -1.11455333      -1.34534134       0.39028456      -3.10324484      -0.42383268       0.36130119      -2.13085428 F F F
 H              1.24773472       2.85961695       2.54227043      -0.41055600       7.07407471       1.62478056      -0.44333005       1.63104247       1.18828714      -1.55418298 F F F
 H              3.87727833       5.37507652       9.14058176       1.91025107      -2.46790841       2.75129957      -0.18552504      -0.27448677       1.20064657      -1.43368336 F F F
 H              6.28176700       7.84540167       2.68776168       1.58161070      -3.70776483       0.77144751      -0.57746411       0.86844578       0.29528833      -1.59399346 F F F
 H              9.16393984       2.52161831       7.50602759       1.30701762       0.04891360       1.28515259      -0.23282634      -0.64875234       0.30963401      -0.95449699 F F F
 H              3.59140691       1.72040810       2.87420879      -7.11344413       1.64542317      -3.09742448       3.91541030      -2.91857904     -25.64412140       0.14233194 F F F
 H              6.21639036       5.62969503       6.93407065       0.60478438      -0.57271635       1.52166866       0.16179852       0.72073246       0.18050038      -0.52161786 F F F
 C              9.17248264       8.44437170       7.84005569       0.57131167       0.00493093       0.05772975      -1.61893821       1.29701452       1.01960435      -5.62559386 F F F
 C              4.95664436       1.59015509       0.29531634      -0.01619282      -0.15362800      -0.61636816      -2.58470720       2.17376002       4.39139551      -4.74275892 F F F
 C              8.39613719       7.92294830       4.94929879       0.65611619       0.23443474      -0.17943363      -0.51342110       1.15561498       1.35902815      -3.39085981 F F F
 C              4.67194726       3.86081655       2.35626602      -0.33876708      -0.41195935      -1.38748303      38.74622436      23.21962158     -87.15233421      -1.48521388 F F F
 C              4.24251786       6.74510049       1.79945917       1.58893643       0.18306107      -1.49575190      89.95494631    -119.21294040     227.41062421      18.03259770 F F F
 C              2.12746506       6.25305173       9.58356417       1.13643612      -0.86665385      -0.63651021       2.46056760      -1.99370185       1.49762135      -2.15322409 F F F
 C              2.57343829       9.87747968       1.03758785      -0.44639246       0.05362682      -0.09530254       0.54419741       1.49123518       2.27346581      -4.93020818 F F F
 C              8.73324126       0.01156530       0.09161959       0.07259653       0.42469352      -0.40719798       2.36927006      -3.44878477      -0.15767694      -5.35061439 F F F
 C              3.42110359       8.57252809       5.89119496      -0.09415314       0.33416071       0.36057759       0.04058303      -0.41403252       0.24490924      -0.39777306 F F F
 C              4.47954552       9.06547525       2.60073363       0.55976287       0.06812217      -0.20274952       1.38576554       2.28059542       0.29123817      -5.95274140 F F F
 C              6.94281659       8.33970794       7.03043730      -0.73589430      -0.26859644       0.57337086       4.04691136       0.19352279      -1.63114427      -4.39108008 F F F
 C              2.58191610       1.44703684       3.36703002      -0.53516549       1.34091185       0.57350774     -14.48751411      -4.28142668      -2.47987155      -2.59005997 F F F
 C              4.81167806       5.16178155       0.41417352       0.02218299       0.14703341       0.08217149      -0.39769843      -1.39502795      -1.88989813      -7.13309793 F F F
 C              9.80910389       8.95978315       0.02000679       0.15833936       0.42719153      -0.50212861      -3.54932226       3.53680755      -1.32173033      -5.81692395 F F F
 C              3.63637847       2.68768949       1.45335281      -0.92490196      -0.04999571       1.51618600     406.06685085     222.76796097     121.30511042      30.29948824 F F F
 C              4.01245036       7.04986564       1.21957819      -0.54822451      -0.40728990       1.40942228     -90.18972361     118.81506099    -225.95183045      18.42030626 F F F
 C              4.67730662       1.80547642       2.82956957      -0.06209391       0.37959492      -0.14283484       8.29926221      -0.41138449      -4.85751246      -5.53757541 F F F