      50
 Properties=species:S:1:pos:R:3:velocities:R:3:forces:R:3:local_energy:R:1:fix_atoms:S:3 Lattice="9.9905032156        0.0000000000    0.0000000000    0.0000000000    9.9905032156    0.0000000000    0.0000000000    0.0000000000    9.9905032156" temperature=4865.27885977 pressure=32636.08694624 time_step=0.5000 time=0.000000 energy=-239.494090 energy_soap=-323.57997478  energy_2b=82.99630108 energy_3b=1.08958339 energy_core_pot=0.00000000 energy_vdw=0.00000000 energy_exp=0.00000000 energy_xps=0.00000000 virial="4.57449289           -1.29488775      3.93247177     -1.29488775      8.73599732      5.10976676      3.93247177      5.10976676    -14.00569873" stress="-0.00458755           0.00129858     -0.00394370      0.00129858     -0.00876093     -0.00512435     -0.00394370     -0.00512435      0.01404568" volume=997.153669 step=0
 H              5.29125658       3.80322898       8.15378990       0.08475508      -0.01988170      -0.05250148       2.05398777       0.33489176      -1.76291400      -2.90223209 F F F
 H              5.21644062       2.37324159       5.64720762       0.07908050      -0.02453320       0.00478373      -0.66383100      -2.29511957       2.31359017      -1.92477303 F F F
 H              1.63511999       6.66028986       5.26267650       0.01455578       0.09413266       0.00995791       0.40269871       0.30628493       0.23499493      -1.60400108 F F F
 H              1.13670850       3.53281816       2.00340394      -0.03924587      -0.09532049      -0.00209663      -0.09979371       1.74904839      -1.01393860      -3.54774370 F F F
 H              5.86344737       3.10198764       1.11769062      -0.09785543      -0.03402503      -0.04379332      -1.18932319       0.31433360       0.33405235      -1.32746567 F F F
 H              9.14108314       7.72384406       1.67562078      -0.05814479       0.02232283       0.00308707      -0.59702658      -0.27015960      -0.84718461      -2.08677777 F F F
 H              3.25108598       8.79283353       9.24309400      -0.08210732      -0.07321641      -0.02081807      -4.61502338       0.34716977       7.96354808      -3.20140976 F F F
 H              1.64856108       1.00911617       3.87653292       0.11182492       0.02474232      -0.01209676       3.02942532      -1.40781526       1.14957902      -3.38593856 F F F
 H              5.79119035       6.99149340       2.12410143      -0.01237341      -0.06504504      -0.04086860      -1.96887980       0.76665007      -0.58486635      -2.96475677 F F F
 H              6.83626039       6.61108070       3.17331779      -0.09150108       0.18593151       0.11948408      -0.77408616      -1.49217637      -1.35034594      -2.66530467 F F F
 H              2.55690395       2.03771468       5.48564207      -0.02407993      -0.05861017       0.05719599      -2.12638117       0.23979098       0.50572206      -2.21104144 F F F
 H              3.54000192       8.78454301       8.72472889       0.02162484       0.00178857       0.00631136       4.00479635       0.33865298      -7.64274959      -2.06617305 F F F
 H              0.18201858       2.36644116       4.64216465       0.09349500       0.00392735       0.02747977      -0.89420408      -1.50264874      -0.64629030      -2.44059957 F F F
 H              2.68081780       1.96379938       8.69561403      -0.12830716       0.05686214      -0.00050408      -0.27939773       0.00257961      -2.81153939      -3.57885764 F F F
 H              1.09279151       4.06876041       9.38837053      -0.02144770      -0.04067527       0.03501723       0.09685301       0.85293550      -0.63480211      -3.05581492 F F F
 H              0.73346279       9.96451110       2.26616101      -0.03352509       0.09459374      -0.02539732      -0.43301810      -0.97337789      -1.07427046      -2.79504506 F F F
 H              2.40466550       5.36968101       0.13078374      -0.02477972      -0.01321551      -0.18055912      -1.92797712      -0.30312834      -0.40952459      -2.07268884 F F F
 H              6.89375463       7.33759935       9.46317790      -0.12408740       0.01400122       0.06284510       0.35282152       0.39123233       1.45848446      -1.59396494 F F F
 H              4.57727159       7.38932037       8.18561168      -0.07707479      -0.07823530      -0.03686987      -1.03291005      -1.87229055      -2.52224943      -2.69474600 F F F
 H              1.05610590       1.28019438       3.58696820       0.06228679       0.01498378       0.00082687      -1.49322563       0.72601475      -1.47463728      -2.36370211 F F F
 H              8.51831641       8.34600621       3.29144910      -0.03909235      -0.00722860       0.06159559       0.65009704       0.18944366      -2.52754019      -3.00228043 F F F
 H              0.22734220       9.33706398       2.04677606       0.11876969       0.07446642       0.07393084      -0.37314773       0.46931568       0.25720081      -3.02812163 F F F
 H              0.08324585       2.94041734       5.02213643       0.05673191       0.05709575      -0.01069540      -0.75210001       2.57595180       1.47590226      -3.05513733 F F F
 H              5.53651905       1.19002450       2.54299052      -0.01305298       0.02666670       0.03804574       1.51266439       1.31840691       0.76872171      -2.53361963 F F F
 H              1.12623851       4.14379074       5.98319542      -0.06180018       0.07104733       0.01187972       1.41937562       0.90437382      -0.34388456      -2.01136534 F F F
 C              6.36212619       5.41509950       6.91687857      -0.00778285       0.00207247      -0.00365046      -1.22918928       3.82308644      -0.83347202      -5.74182339 F F F
 C              6.51173629       1.92170575       2.58984084       0.02284242      -0.02227368      -0.01476999      -2.28087159      -2.28717275      -0.09031841      -8.71076707 F F F
 C              9.95066822       5.52746119       0.52133546      -0.01288566       0.01995816      -0.00838315      -8.87607264       6.28422252       4.73990612      -6.87818527 F F F
 C              3.81676245       3.75568689       5.46918381      -0.02395713      -0.01828271       0.00060369     -13.21991458      -2.59895834      -1.57186528      -4.36621579 F F F
 C              4.46598058       5.70654654       6.46165302       0.00516768      -0.02133583      -0.00205011       1.82510628       2.00274454      -1.37844745      -7.14271667 F F F
 C              7.45498567       9.60261423       2.02829714       0.01464467      -0.01019957       0.01524903       1.60918528       0.48045523      -2.44774143      -6.17844515 F F F
 C              2.82544806       2.19960456       7.56406256       0.00483705      -0.00610691      -0.02013695       0.19950536      -0.08958774       5.79772980      -7.71071307 F F F
 C              7.58167591       1.01370651       2.03849178      -0.01934838       0.01430461       0.05893880      -2.50492191      -0.83328144       0.64814366      -7.55208196 F F F
 C              4.22132521       6.33709063       4.40373769       0.01097618      -0.02180827       0.00020123      -1.10056405      -1.74275001       2.95704478      -5.51373779 F F F
 C              2.86957250       2.74077150       6.39485242       0.00659074       0.02172486       0.01607883      -0.74029078      -1.88785137      -4.57576055      -6.02221229 F F F
 C              8.95090418       6.36796029       0.98080709       0.01740571       0.00554242       0.01478838      -1.53629902      -0.71012254       0.08016028      -8.07940197 F F F
 C              2.38687571       5.06904117       5.22951844       0.02500782      -0.01059717      -0.02306360      -1.10066284      -2.40019517       0.67454583      -7.54633166 F F F
 C              3.91254114       6.72365367       7.10587305       0.02896171       0.01174218       0.01508538       1.35385142       0.81526884       1.65347622      -6.54363683 F F F
 C              6.91536884       4.22096027       2.15713203       0.02187983      -0.01163237      -0.01513785      -2.19381893       2.92761800       1.28965103      -7.47754880 F F F
 C              3.01243540       6.00486747       5.88905130      -0.02369773       0.02183986       0.01351091       1.35388210       3.59271250      -0.99159789      -6.42516707 F F F
 C              7.11898034       8.59242053       0.94825296       0.00882292       0.02274728      -0.01258479       1.46735250      -0.24468392       1.78225923      -7.42859326 F F F
 C              6.35648238       6.10906231       2.03790318       0.03642834      -0.00711184      -0.00906657       5.92726378      -1.34672916       0.92295348      -6.35383544 F F F
 C              5.94567460       3.25911082       2.57310897      -0.01948967       0.00684434      -0.01340895       4.73394957      -0.66918249      -3.71902073      -6.28464044 F F F
 C              4.23603034       2.79614191       6.25663374      -0.01787225       0.00642855      -0.01214851       6.34923662      -3.02087076       0.10890808      -8.11867569 F F F
 C              0.98867616       4.57714298       1.50139395       0.00773011      -0.03720015       0.02076883      -0.52205190      -0.69651949      -0.82817455      -8.28745634 F F F
 C              0.92638733       4.95845247       0.05215886      -0.03641847      -0.01404804       0.00030009      10.73470191      -7.16240441      -1.42195571      -6.20125460 F F F
 C              8.63421212       8.64149156       2.11490896       0.00808864       0.01745899      -0.02123201      -1.33787698       0.59910428       3.58119583      -7.85914146 F F F
 C              7.60731072       6.44108574       1.13817881      -0.01614954      -0.00760611       0.00644972      -1.18716718      -0.41402540      -0.02378466      -8.40439201 F F F
 C              6.13218085       4.22197002       7.26661486      -0.00923727       0.01296071      -0.00677285      -2.34580920      -4.67628046       2.45533293      -6.24633394 F F F
 C              4.88061185       4.33401502       5.48890253      -0.00854786       0.00501938      -0.00682161      10.31908176       8.54504287       0.37577299      -8.30722133 F F F
      50
 Properties=species:S:1:pos:R:3:velocities:R:3:forces:R:3:local_energy:R:1:fix_atoms:S:3 Lattice="9.9905032156        0.0000000000    0.0000000000    0.0000000000    9.9905032156    0.0000000000    0.0000000000    0.0000000000    9.9905032156" temperature=4647.97612248 pressure=49136.91756950 time_step=0.5000 time=20.000000 energy=-242.175128 energy_soap=-324.80361506  energy_2b=78.50208936 energy_3b=4.12639743 energy_core_pot=0.00000000 energy_vdw=0.00000000 energy_exp=0.00000000 energy_xps=0.00000000 virial="5.93029575            2.29452067      6.87329506      2.29452067     16.39793299      9.98550669      6.87329506      9.98550669     10.53832217" stress="-0.00594722          -0.00230107     -0.00689291     -0.00230107     -0.01644474     -0.01001401     -0.00689291     -0.01001401     -0.01056840" volume=997.153669 step=40
 H              7.06129561       3.54482901       7.43825417       0.11860290       0.00477563      -0.03857741      -2.73763972       1.41630240      -0.51531298      -3.21494983 F F F
 H              4.57329118       1.50984747       7.03026769       0.00826043      -0.00112424      -0.00096874       1.34485519       1.22251631      -1.51891585      -2.08456660 F F F
 H              2.91285043       7.87513067       6.25580098      -0.04686646      -0.01864400       0.01176717      -1.07990209      -3.05770038      -0.77375162      -2.68876801 F F F
 H              0.87269194       3.04044753       1.84334575       0.03674433      -0.00029871       0.04864707       0.35377241      -1.21333878       1.50361680      -3.46978716 F F F
 H              5.10190593       3.77544386       2.73039557       0.01696677       0.08420834       0.07738278      -0.39763434      -0.70234830      -0.58881505      -1.45870076 F F F
 H              9.20460895       7.98915430       1.53577548       0.04088754       0.03141183      -0.01937132      -0.39949468      -1.57917936      -1.71556932      -1.77873126 F F F
 H              2.69926137       8.31143208       8.56010950       0.02248574      -0.00628470      -0.06158847      -0.48369279       0.39416825       2.98564829      -2.95934778 F F F
 H              3.96408080       1.59080609       3.61067581       0.12963241       0.03091301      -0.01002012      -0.50688041      -0.16864875       0.14787915      -2.88193982 F F F
 H              5.68770726       5.36359176       2.76504681       0.00500648       0.02667781       0.08260665       1.02916608       1.98513241      -0.52979093      -2.18945321 F F F
 H              5.34705688       8.89909365       3.24318345      -0.02700574       0.09718916      -0.09434525       1.39581126       0.52443517      -1.77642213      -1.32331173 F F F
 H              2.22409231       2.01231207       6.14029751       0.06688958      -0.02658157      -0.09714184      -2.55942373      -3.15453215      -2.00962902      -1.50500067 F F F
 H              2.50658619       8.52387474       9.43452217      -0.09559050      -0.03173523       0.05648413       0.90144331      -0.76077696      -3.44522548      -2.80299967 F F F
 H              0.54720796       3.57661110       5.18112055      -0.06146846       0.10177771      -0.02502212      -0.29593098      -0.01852481      -0.25329981      -2.97976697 F F F
 H              1.65373086       2.39239663       8.02645817       0.01173611      -0.01240627       0.12164754      -0.28314024      -0.32278289       0.72815987      -3.32952828 F F F
 H              0.19105202       3.49011402       9.78279317      -0.03011508      -0.02153277       0.00088973       0.36984453      -0.16734573      -0.89567371      -2.37900279 F F F
 H              0.21569998       0.19852398       2.07505547       0.03561380       0.02994756       0.04324691      -0.25032240      -0.40089684       0.04059602      -3.05582811 F F F
 H              9.69166936       4.51105201       9.15495070      -0.10352032      -0.07149048       0.04247461       0.54894276       0.04922507       0.11387719      -1.81326739 F F F
 H              6.23867199       8.75683553       1.91701885       0.10526006       0.10029301       0.13163525       0.01356017      -0.06257370       0.36901944      -1.70801938 F F F
 H              4.19793631       6.36362823       8.03285056      -0.01154559      -0.00827645      -0.10772155      -2.34801015      -0.59257732       8.52255244      -2.30418282 F F F
 H              3.27876784       1.74191493       3.92641913       0.08821983       0.05042516       0.05939223      -0.01053371       0.12978756       0.22477502      -3.15173027 F F F
 H              9.42262263       8.22267431       3.02153185       0.04655159       0.07208233       0.00620712      -1.54502403       2.07450169      -0.88371216      -2.73433397 F F F
 H              0.54959885       0.86979645       2.05806739      -0.10276982       0.00283769      -0.06995877       0.21166519       0.35478364       0.01181767      -3.00809664 F F F
 H              0.82226906       3.52756815       4.49505175       0.00694732      -0.01009016      -0.04938438      -0.65993225      -0.02382341      -0.18241214      -2.98831917 F F F
 H              5.92969033       1.77221161       3.48836945       0.05196468       0.00719947       0.02045865      -0.67258171      -0.79748378       3.47184708      -2.52326016 F F F
 H              1.83656156       6.37729907       5.47343002      -0.00737589       0.19566109      -0.06131448      -9.15688625       1.02823417      -3.38388892      -1.96962203 F F F
 C              6.05270639       5.56234546       6.88041091      -0.02286907      -0.00512813       0.00252232       0.79975966      -0.39555998       0.11854239      -7.32726421 F F F
 C              6.18898362       2.00891444       2.55319342      -0.02336002       0.00081101       0.01270403       2.52052093      -0.10905925      -3.71998043      -8.41241753 F F F
 C              9.81467295       5.81409813       0.42250640       0.00911549       0.00564681       0.00387874       0.85502993       0.50504041       1.88445615      -9.00187811 F F F
 C              2.85914570       3.67772492       5.21953578      -0.04870536      -0.01157609      -0.00408718      -0.45410338      -0.05738125       1.72843238      -8.20034420 F F F
 C              4.76411043       5.66002674       6.27973774       0.03489964       0.00924744      -0.00993617      -0.01965214       7.77472798       5.02443092      -1.60824334 F F F
 C              7.59528012       9.79382468       2.09120973       0.00014643       0.01892399      -0.00299609       2.41317050      -4.04292436      -1.69564389      -4.83230391 F F F
 C              2.67921842       2.17060804       7.71231084      -0.02430485       0.01313778       0.00826371      -0.46037637       2.76312655      -0.90505096      -6.50102780 F F F
 C              7.47470011       0.71799932       2.92252176      -0.01105532      -0.01564319       0.03022153      -2.59403213       3.77729939       0.16793286      -8.29178353 F F F
 C              4.32568616       5.77991252       4.73192782       0.00165581      -0.03001445       0.02349237      -2.37794822       2.20429333      -1.11193707      -7.40223237 F F F
 C              2.91519236       2.68601712       6.29925177       0.01968237      -0.02296810      -0.01126064       5.40620534       0.65883866       0.49888880      -6.69649713 F F F
 C              8.92911548       6.63489433       1.24759982       0.01841336       0.01012758      -0.00540243       3.35382646      -1.55825229      -2.95057505      -6.58286436 F F F
 C              2.82934663       4.97834821       5.06971623       0.01594060       0.01681282      -0.00732529       1.22416313       0.41768029      -0.88584322      -7.89769764 F F F
 C              4.36005851       6.60542238       7.13763741       0.01069477       0.00013153       0.01980906       0.22821795       1.98045297      -6.70374966      -9.11640608 F F F
 C              6.88961000       4.29044854       1.98577006      -0.00648710       0.01533927      -0.01062107       0.82369691      -8.36339723      -2.08341817      -6.94913696 F F F
 C              2.64341700       6.52717515       5.89878052      -0.00443024       0.02578093       0.00155834       9.32404666       2.41233645       4.54031253      -6.57971887 F F F
 C              7.29773020       8.93457856       0.95421554       0.00432946       0.00900749       0.01691001       0.30386068      -0.98290450       2.70539919      -7.40803138 F F F
 C              6.80308384       5.49421723       2.07899930       0.00919902      -0.04545736      -0.00036032       0.61045925      10.21559476      -1.97132443      -7.39404715 F F F
 C              6.18850519       3.13929803       1.78890541       0.01822519      -0.01608584      -0.04000424      -0.03870214      -2.04570253       3.53806498      -7.47651816 F F F
 C              4.45396442       2.64335744       6.16054525       0.00091078      -0.00598606       0.00199158      -2.72690683      -0.74732679       1.66451865      -7.63409382 F F F
 C              1.03623467       3.92959300       1.32448303       0.00105470      -0.03112680      -0.02442690       2.04856024      -0.62041227       3.03117067      -7.33111646 F F F
 C              0.59513770       4.51209150       0.32598634      -0.03597692      -0.00903384       0.01770222      -4.99904923       3.37724615      -3.81174108      -6.33759329 F F F
 C              8.79419898       8.87166813       1.98017871       0.01607790       0.00329961      -0.00262385      -0.57576557       1.26037728       1.90514392      -8.13828614 F F F
 C              7.64742209       6.47129770       1.03273109      -0.01440126       0.00281625      -0.00344665      -4.61103840      -1.28288847       3.62913861      -8.18972762 F F F
 C              6.06812736       4.24329863       7.14751762       0.00416242       0.00320519      -0.00657324       4.12401478      -2.72435054       1.33110532      -7.70239727 F F F
 C              4.88286906       4.79360312       5.42161227       0.00138969       0.00600904      -0.01566009       2.04001054     -10.57340828      -5.57564327      -6.86098643 F F F
      50
 Properties=species:S:1:pos:R:3:velocities:R:3:forces:R:3:local_energy:R:1:fix_atoms:S:3 Lattice="9.9905032156        0.0000000000    0.0000000000    0.0000000000    9.9905032156    0.0000000000    0.0000000000    0.0000000000    9.9905032156" temperature=4582.26904335 pressure=-22262.52132383 time_step=0.5000 time=40.000000 energy=-243.671491 energy_soap=-287.35559174  energy_2b=44.42881460 energy_3b=-0.74471424 energy_core_pot=0.00000000 energy_vdw=0.00000000 energy_exp=0.00000000 energy_xps=0.00000000 virial="-35.01435389         -4.94942997    -12.36080104     -4.94942997    -51.31972168      2.59693538    -12.36080104      2.59693538    -13.27857370" stress="0.03511430            0.00496356      0.01239608      0.00496356      0.05146621     -0.00260435      0.01239608     -0.00260435      0.01331648" volume=997.153669 step=80
 H              7.32568724       3.66446643       6.81862894      -0.07258601      -0.01655059       0.00975413       3.38110477      -2.55488483      -1.07532216      -3.12798004 F F F
 H              5.61000974       2.46525241       6.10253294      -0.07310270      -0.02427879      -0.00325492      -1.11874046      -1.90359598       1.14309198      -2.25463958 F F F
 H              2.03820046       7.46486129       6.41070770      -0.10089223       0.03504571       0.03416394      -3.33085714       3.04910371       3.91686713      -3.05203358 F F F
 H              0.93844258       3.20428492       1.92763650      -0.03678654       0.05188362      -0.02130373       0.56493230       0.44172954       1.75061655      -3.14745142 F F F
 H              5.43024135       4.52253488       3.99047791       0.09626022      -0.04244534       0.08249499       0.98663265      -1.82285632       1.65614302      -2.59781884 F F F
 H              9.45432222       7.76626285       0.79233550       0.03769141       0.02859522      -0.04072146       0.12405941      -0.54535777      -0.73915637      -2.44772310 F F F
 H              2.32250692       7.94967706       9.23251128      -0.05942067      -0.03338333       0.00803219      -2.54224510      -0.52721472      -3.34414578      -2.61817948 F F F
 H              5.29810807       2.17963137       3.35923022       0.05521106       0.05149349      -0.01447164      -0.96740392       0.10322934       0.21468494      -3.04361422 F F F
 H              7.42098339       6.47511054       3.15224799       0.05735631      -0.01136865       0.02800160      -0.57275229      -1.23496928      -1.07533344      -1.74571826 F F F
 H              5.57086687       1.67549994       1.07543517       0.02873472       0.20239101      -0.06559618       1.39848839       1.38955976      -0.21740746      -2.19723216 F F F
 H              2.84786328       1.12341287       5.80293435      -0.02819588      -0.02711495       0.03539051       0.25978636       3.03956951       0.83164423      -2.88784699 F F F
 H              1.68475422       7.81114267       8.45378249       0.00033824      -0.01208890      -0.00644543       2.67779660       0.59973155       3.20463388      -2.67979317 F F F
 H              0.04533169       4.46972758       3.52843821       0.00728140      -0.00789703      -0.05351925      -0.30279184      -0.41845312       2.73132746      -2.86396403 F F F
 H              2.96294884       1.99990504       8.13220161       0.05646452      -0.00085791      -0.06915577      -1.79387248       0.81448905       1.12025842      -2.54379864 F F F
 H              9.86765991       4.06032557       9.44642639      -0.04253131       0.07326967      -0.04550320      -1.28467388      -0.35716920      -0.39193881      -2.48561265 F F F
 H              0.08734679       1.80988390       1.29968272      -0.07707006       0.00215037      -0.11256759      -0.28287126      -1.33550100      -0.40129458      -2.58366622 F F F
 H              8.72567096       3.76792009       0.88519687       0.06223695       0.06266106       0.15555062       1.96609847       1.45654885      -0.45180198      -3.10567925 F F F
 H              6.90545146       1.01432238       5.18582115       0.03949877       0.10858247       0.06768804      -0.12369358      -0.07065219      -1.54488062      -1.46061091 F F F
 H              3.85626272       6.55672956       8.03478063      -0.07945701       0.00956785       0.07387996      -6.83247706      -0.67941695       8.28608636      -2.55898655 F F F
 H              5.00830412       2.27615830       4.29239905       0.00263022      -0.00529105      -0.01757780      -1.07207405       0.15442242       0.18916831      -2.20930595 F F F
 H              9.50885833       8.82278356       2.83379406      -0.00139089      -0.08903074      -0.10157198       0.32948151      -0.40940397       0.07874004      -3.23294939 F F F
 H              0.01657768       1.05059615       1.60054210       0.06506094       0.08880001      -0.01125575      -0.15001810       0.20277821      -0.19859892      -3.27237757 F F F
 H              9.82912135       4.38337452       4.38748181      -0.03955254       0.08215176      -0.01274893       1.11557559       0.18517146      -2.35427093      -2.86495948 F F F
 H              7.13756843       2.59771037       2.81041511       0.02146592       0.03192181      -0.08622928      -0.21124113      -0.32588336       0.75651788      -0.93029878 F F F
 H              2.01984466       8.57472114       5.19195829       0.08648997      -0.01921132       0.05564910       0.55663545      -1.31140448       0.30393718      -1.94946945 F F F
 C              6.01755784       5.36252973       7.17520579      -0.00362824      -0.00993963       0.01194508      -1.40147887      -0.31934823      -1.36333480      -7.90002586 F F F
 C              6.11214266       1.80402141       2.73166691       0.02724785      -0.03029681       0.01199305       5.13676438      -2.18373084       0.72222443      -7.68358188 F F F
 C              0.02760676       5.67308678       0.71186962      -0.00073571      -0.01925317       0.01973343      -2.52074184       1.18035314       0.91287932      -8.47313309 F F F
 C              2.11768484       3.75780265       5.39420225      -0.01107878       0.01471591       0.01890027       3.65054600       1.18462015       0.70906568      -6.88282418 F F F
 C              5.01101934       6.41536867       6.05359257      -0.00550343       0.03540489      -0.00177751      -3.19683948      -3.04494106       3.09140795      -6.34463740 F F F
 C              7.81593147       0.02233230       2.16167467       0.00858070       0.02126943       0.01845279      -0.96929679       1.00433682       1.37825525      -6.46625838 F F F
 C              2.28397651       2.65141863       7.39142291      -0.00340032       0.01932898      -0.04603206       2.75411473      -2.03756607      -1.82659678      -6.85125296 F F F
 C              7.01023849       0.64998723       3.19603425      -0.03495047      -0.00296318      -0.00669537      -0.67457753      -0.27295363      -2.05631516      -8.16371754 F F F
 C              4.06273493       5.68117442       5.10847092      -0.00205360       0.00098882       0.03434371      -0.98506802      -0.79515174       1.88133342      -7.18088947 F F F
 C              3.05906871       2.27270302       6.28418552      -0.00664124      -0.00305905       0.01365916       1.51718317       1.09397477      -1.85419212      -6.34502063 F F F
 C              8.99783797       6.76554863       0.88717676      -0.02104997      -0.00307014      -0.01748603       0.16028458      -1.65006764       0.61701871      -7.87371091 F F F
 C              2.82079693       5.10573619       4.99974142      -0.02527386      -0.00690451       0.00718083       1.07513587      -0.34104426       2.19183128      -6.82171945 F F F
 C              4.43158023       6.61003983       7.32278616       0.01183646      -0.00269049      -0.01575044       8.70427519       0.27144526     -11.95579746      -6.46033641 F F F
 C              6.75952145       4.02338482       1.53833570      -0.00951731       0.00939149      -0.02477017      -1.06573575       0.92624934       0.39236951      -7.72858985 F F F
 C              2.59569274       6.96479740       5.79340803       0.00522065       0.01097981      -0.01749754       4.41230110      -4.16246728      -4.32890820      -5.80554659 F F F
 C              7.52926614       8.86499142       1.31160893       0.01671889      -0.01793249       0.01833506       1.32099444      -1.06910345       1.40534489      -7.40205768 F F F
 C              6.97185172       5.56517243       1.94737952       0.00216665      -0.01885523      -0.00602958       1.18087164      -1.28664666      -0.93831105      -7.25135143 F F F
 C              6.52609902       2.47985900       1.51272575       0.00947526      -0.02553039       0.00253080      -2.07628661       3.23806086       0.08756546      -7.62390900 F F F
 C              4.46634473       2.57671249       6.33818622       0.00935094       0.00978652       0.00509718      -1.14053297       1.91953376      -2.25295476      -7.68415590 F F F
 C              0.99316930       3.57744997       0.93892941      -0.01605789       0.00318535      -0.02036566      -1.19519347       0.53432947       0.17264034      -7.30428303 F F F
 C              9.78054603       4.26573387       0.52813210      -0.02209056      -0.02765313       0.01028606       1.41335486      -0.14668698      -0.94389054      -7.14778062 F F F
 C              8.89458166       9.10947066       2.01659945      -0.00515836       0.02348529       0.01300878      -2.39723503       1.07905836      -0.08297384      -7.61085441 F F F