      50
 Properties=species:S:1:pos:R:3:forces:R:3:local_energy:R:1:hirshfeld_v:R:1 Lattice="9.9905032156        0.0000000000    0.0000000000    0.0000000000    9.9905032156    0.0000000000    0.0000000000    0.0000000000    9.9905032156" energy=-253.177671 energy_soap=-261.60372936  energy_2b=7.91583612 energy_3b=0.51022211 energy_core_pot=0.00000000 energy_vdw=0.00000000 energy_exp=0.00000000 energy_xps=0.00000000 virial="-18.80693507         -2.75155135     -1.02260653     -2.75155135     19.42980194      0.03111803     -1.02260653      0.03111803    -13.87781406" stress="0.01886062            0.00275941      0.00102553      0.00275941     -0.01948526     -0.00003121      0.00102553     -0.00003121      0.01391743" volume=997.153669
 H              6.15478596       1.77245008       5.89212930       0.29648891      -0.06322567       0.43974714      -2.83054780       0.56684135
 H              5.49950805       2.12625440       6.00255808       0.04798125       0.08232055       0.55308627      -2.77094006       0.57487346
 H              4.08482775       5.07263041       8.68531408       0.77811999       0.61374316      -0.48023761      -0.93181414       0.92447138
 H              6.08423855       6.26665164       9.62921386       0.96829278      -0.62187154       0.75218623      -3.16782726       0.72280848
 H              9.51248771       4.95310217       5.52197263       0.56841654       0.13253582      -1.38185864      -3.12514788       0.57258575
 H              4.86689080       4.35673195       1.52215048      -3.00875450       0.08862533       2.32409641      -3.57163713       0.76357460
 H              9.42117451       4.89330417       6.21139658      -0.01160305      -0.10344803       1.53869195      -3.13917748       0.55128260
 H              3.80695613       4.24227644       4.27771905      -1.44922547      -0.65802694       0.79360095      -4.17720468       0.73330155
 H              5.72247302       1.32907735       2.24693448       0.96121566      -2.43702752      -0.41649677      -3.52210528       0.78470146
 H              3.12962386       5.20486372       5.96401404      -1.17476186       1.88849111       0.96977685      -3.49415360       0.69541574
 H              5.75974701       8.63255861       3.64474689       0.15294671       0.42686075       1.42365508      -3.87782602       0.69211294
 H              1.33002883       0.12153550       7.02791652      -0.14914050       2.92444307      -2.60300973      -2.77436055       0.73866110
 H              7.66859177       5.07951860       3.61483058       1.26605309      -2.27363292       1.13129814      -3.55987417       0.70081630
 H              9.12016629       0.63501629       1.02731411       1.27125185      -0.93965445      -0.95012155      -4.05585231       0.68244127
 H              5.70271495       2.79891634       1.88662625      -2.03744482      -1.03805498       1.91385016      -2.90778072       0.72632733
 H              7.87231787       9.44408913       2.93661513       1.41799764       1.44252572      -1.35208099      -3.83183693       0.68311647
 H              7.50315521       3.85075401       1.26164567       0.84882035       0.37582962       0.26731466      -2.91906429       0.63003438
 H              1.18655677       0.87607042       6.44912518       0.77575354      -2.79760104       1.91407356      -2.69067217       0.69958931
 H              5.28243819       1.85367059       4.10119323      -0.80470441      -0.22893603      -3.89879767      -3.19886217       0.69999233
 H              6.80809393       6.32020156       9.94222712      -0.94918104      -0.59411768       0.18865380      -3.20105198       0.70840597
 H              2.05159312       9.39558283       9.59012258      -1.04198903      -0.71725822      -1.76440826      -4.28228526       0.72776755
 H              0.44759563       9.09926268       8.96996203      -0.31966353      -0.42333491      -0.08480554      -4.22888711       0.68120326
 H              9.61751831       0.63105145       8.14214643       0.06282144      -0.14786751       0.75494309      -4.00626309       0.66643167
 H              3.59557122       6.84704752       5.05469444      -1.21457067       0.94571703       0.84597479      -3.77900858       0.69466404
 H              8.06591174       4.08168920       1.75845476      -0.52411260       0.02916510      -0.46788843      -3.13783458       0.61684002
 C              3.43016391       2.40085545       3.13605679       1.40743875     -10.37810753      -1.96131692      -6.20983431       0.84741035
 C              4.86339801       1.80543291       2.70385305       1.33574454       1.89573707       2.41243013      -7.45531105       0.85121407
 C              3.62713477       9.91872917       1.76208432      -1.07679622       0.57466347      -2.22274767      -6.36790411       0.89001825
 C              7.23829750       8.81333824       2.31101874       1.98390240       4.81026448      -2.63442853      -7.90524834       0.83335568
 C              8.88181532       0.10145597       0.05589170       0.01971165       3.05792151       4.08251147      -7.08497251       0.82091167
 C              3.93368937       9.00409538       0.49711405       1.48411585       2.28530429       1.45821344      -7.81424430       0.89728804
 C              3.48291635       1.27365654       2.17566118       2.10310275      -3.64494648      -1.29676858      -6.91232598       0.86784312
 C              2.09749917       5.50163769       4.42499745      -1.32148201       0.41589539      -0.02122960      -4.83518135       0.94674090
 C              7.95107147       9.10892626       8.41179388      -1.36618444       0.04299409       1.59416396      -6.31160054       0.89262769
 C              6.54862202       6.85444283       3.08928679       0.32320491      -6.01603517       0.43091801      -7.04037552       0.82666470
 C              7.54250379       0.07947043       0.09392797      -0.83323442      -2.77338828      -0.40110312      -7.06789428       0.87262621
 C              6.75232173       8.39918776       8.16307537       0.96480879       0.66078182      -1.40653782      -7.40086632       0.87524100
 C              6.48957810       7.07152287       7.90485936       0.60196106      -0.27997138      -1.87151834      -7.22668260       0.86429351
 C              3.84207929       4.09916953       2.23025149      -0.06118905       1.18122100      -1.25977442      -4.94805534       0.92176361
 C              2.96437685       8.94578953       9.31227736       5.99743942      -1.43535586       3.48677953      -6.97219771       0.84787129
 C              4.06881220       8.23600606       8.68741363      -2.27196942       3.27040877      -0.07133547      -6.18859667       0.89759422
 C              9.65066181       9.82950658       8.92710367      -1.48781250      -0.43827511      -2.84502687      -7.43654125       0.79391456
 C              6.21132557       6.01123742       7.25743449      -0.51187656      -0.36268249       0.62294355      -5.31169702       0.96401619
 C              7.03242835       5.68930438       3.10674442      -0.84590673       1.15083556      -1.30167275      -7.06766414       0.82205643
 C              5.43072991       8.75866891       0.26203502      -0.68609896       2.82505384       0.51781488      -7.41299010       0.89054646
 C              2.65447017       6.25662927       5.35782345       3.52921549      -3.21649787      -1.12561852      -6.22559137       0.88368432
 C              6.76939337       9.37557268       1.03732962      -3.23267633      -2.23466488      -1.90165501      -7.64974102       0.86531597
 C              3.29607044       3.56632975       3.55711285       2.51540979      11.47296868      -0.55716811      -6.22119296       0.84511761
 C              5.44855853       8.82532160       8.53350674      -0.25129043      -1.02690984       3.72568223      -8.02758096       0.88554641
 C              6.70543080       8.10095976       3.33858647      -5.05054657       2.25658512       0.13520063      -6.90136617       0.82147967
      50
 Properties=species:S:1:pos:R:3:forces:R:3:local_energy:R:1:hirshfeld_v:R:1 Lattice="9.9905032156        0.0000000000    0.0000000000    0.0000000000    9.9905032156    0.0000000000    0.0000000000    0.0000000000    9.9905032156" energy=-250.288227 energy_soap=-257.62154198  energy_2b=7.91555109 energy_3b=-0.58223623 energy_core_pot=0.00000000 energy_vdw=0.00000000 energy_exp=0.00000000 energy_xps=0.00000000 virial="-43.59783173         -8.31218258      1.64295112     -8.31218258    -25.09370780     -2.19341295      1.64295112     -2.19341295    -14.34787847" stress="0.04372228            0.00833591     -0.00164764      0.00833591      0.02516534      0.00219967     -0.00164764      0.00219967      0.01438883" volume=997.153669
 H              5.29745521       2.04106224       6.05744107       0.31561571      -0.76152168       1.40755762      -3.03271561       0.61664771
 H              5.50669502       1.60146813       6.70955634      -0.46268504       0.98460553      -1.15843468      -3.11562284       0.60160258
 H              2.78255841       3.47662521       6.47624667       0.22677877       0.48137777      -0.87589734      -0.99135828       0.88157227
 H              5.74139423       4.91570962       9.14512401       1.25837422      -1.76312002       2.60630979      -3.30228354       0.79497436
 H              9.14252608       4.04249293       6.68367886       1.61632382      -0.24245857       4.48453035      -3.15963891       0.50736280
 H              4.21081535       5.32151244       3.11935229      -0.80643160       0.66799772      -1.09075767      -3.17110128       0.75730222
 H              8.91611659       4.08308777       6.08774444      -1.69734452       0.20895781      -4.24761285      -2.71886699       0.53139402
 H              3.63774966       4.35862890       4.94742607      -2.16542297       0.84743473       0.02029458      -2.91582241       0.69349009
 H              5.74624679       2.22648061       2.38600670       0.14485470       0.34536292      -0.35418674      -4.02617615       0.72269869
 H              0.97144293       4.77863929       4.54371136       2.35824037       0.90113118      -0.15167239      -2.42069352       0.73653071
 H              6.16001008       8.26431614       4.48146545      -0.63199805      -0.38663627       0.86509188      -4.22525231       0.67423026
 H              1.85397685       0.28810923       6.78358385       0.20165094      -0.01229280      -0.34634263      -3.02330641       0.61000629
 H              7.49387666       4.53683122       3.96519424      -1.85671125       3.18391549      -2.63723537      -3.21104212       0.70961864
 H              9.68990083       0.36254473       0.40441304       1.27576597       1.33358646       2.94220512      -3.92450887       0.67064869
 H              5.06891024       4.55711275       2.43337872       1.40132028      -1.00239548      -1.03513961      -3.57942707       0.71407951
 H              7.54810061       0.08339277       3.06773970       0.30614136      -0.16606441      -0.32368900      -4.30999561       0.69612393
 H              7.95971771       3.56627400       1.71517012       0.29566860       0.22258497       0.12992454      -3.23046403       0.61371104
 H              1.61790123       9.55487494       6.69877407       0.40585746       0.22804300      -0.58168527      -2.80898435       0.61974156
 H              5.41622540       0.83172610       3.76552525      -1.72732662       3.14383308      -2.10405288      -3.62267712       0.68209720
 H              6.03308317       4.39355311       9.96945672      -1.64958666       2.11027152      -3.44221066      -2.42497729       0.75928190
 H              1.71187947       9.20027178       9.04677500       2.85920926      -0.98105270       2.22615018      -4.15443756       0.67896700
 H              0.12980085       9.24521049       8.33717830       1.85292172      -0.81230190      -0.01318988      -3.95679018       0.64691010
 H              9.50064996       0.90871222       8.16761973      -0.12541155       1.69803945      -2.05659906      -3.94919557       0.63179962
 H              1.80217922       7.29260208       5.19716817       2.34514202      -0.71641993       0.54973588      -3.71430644       0.71623776
 H              7.41501948       3.40034689       1.20935793       0.46062161      -0.00710611       0.14094543      -2.65314847       0.62483031
 C              3.58528882       2.47462004       2.95936547      -1.95753995       2.41590665      -0.32053769      -6.95857703       0.86077639
 C              4.89467910       1.91360593       2.97926653      -0.21456037      -6.06208140       1.52543128      -6.82173274       0.84531316
 C              3.60692443       0.04904943       1.36766248      -0.88570912       4.79132545       5.00479611      -7.19019182       0.86253973
 C              7.14586733       9.13314682       2.68992620      -7.58279947      -3.84909558      -1.62750250      -7.01387966       0.85026081
 C              8.87715627       0.04511224       9.87981728      -5.15861380      -3.78471486      -0.50381445      -7.01190976       0.83566477
 C              3.81681552       9.03008499       0.49555238      -0.23243750       3.10899080      -0.94033276      -7.58065725       0.88311516
 C              3.53885483       1.15920903       2.29758885       2.60034100      -1.59417540      -1.46380793      -6.68988569       0.87148433
 C              2.66273414       5.47458871       4.42998670       1.54797930      -2.15569088       2.46587076      -5.85093084       0.87565496
 C              8.16133369       8.87576858       7.96083239       1.39775888       4.32792236      -0.13498765      -6.44602812       0.87557698
 C              6.65174042       6.72990145       3.05580056      -3.00040033       9.00144516       1.22928561      -6.65679655       0.83946402
 C              7.63941307       9.45722101       0.36444879       2.89937341       1.62576940       1.10324683      -5.92863780       0.89567575
 C              6.89499777       8.35112182       8.16747631       1.34642091       2.89252360       0.16969615      -7.40804546       0.87305524
 C              6.71261539       7.09643654       7.84059744      -2.17928353      -4.21926413      -0.89621837      -7.66376427       0.86018112
 C              4.01265956       4.25277830       2.38733055      -2.27218077       0.43589722       2.84447185      -5.89057809       0.90453937
 C              2.78684070       8.98903108       9.44865652       4.44418092      -3.03055504      -3.66275313      -6.86109677       0.84881976
 C              4.08463433       8.25840832       8.68205885      -1.02372314       3.56694683       0.53499624      -5.45400554       0.93443654
 C              9.33217927       9.91239017       8.40932544      -6.35472068      -4.83582444       1.82187089      -7.85590282       0.79640286
 C              6.04459257       6.01969690       7.51632018       0.91491840       0.37362691       0.93104275      -5.28066035       0.95240708
 C              6.92270706       5.58678132       3.10499782       4.30213084     -12.25085236       2.20103220      -6.17718053       0.81130265
 C              5.44274409       9.17233467       0.21343364      -2.32757899      -1.75878407       1.66311178      -7.62573642       0.88202098
 C              2.87220533       6.58986178       5.19887131      -4.01102147      -1.69089923      -3.01244568      -5.20134827       0.94143045
 C              6.26250491       9.05421731       1.33558397       7.92369320       2.79842901      -2.15921955      -6.92329774       0.87602756
 C              2.88908113       3.99670192       3.31615595       2.43436788      -1.22623814      -0.69028767      -6.23354612       0.91951397
 C              5.64666997       8.91749145       8.75738240      -3.50213269      -1.23594797       1.55822819      -8.21826018       0.87747162
 C              6.33982721       8.03874867       3.46610397       4.68996848       2.84956837      -2.59521257      -7.70278437       0.83402491
      50
 Properties=species:S:1:pos:R:3:forces:R:3:local_energy:R:1:hirshfeld_v:R:1 Lattice="9.9905032156        0.0000000000    0.0000000000    0.0000000000    9.9905032156    0.0000000000    0.0000000000    0.0000000000    9.9905032156" energy=-245.219538 energy_soap=-252.97856683  energy_2b=6.28409892 energy_3b=1.47492943 energy_core_pot=0.00000000 energy_vdw=0.00000000 energy_exp=0.00000000 energy_xps=0.00000000 virial="6.94611385            3.08819141      3.86711834      3.08819141    -26.27098539      4.33960687      3.86711834      4.33960687     15.93413010" stress="-0.00696594          -0.00309701     -0.00387816     -0.00309701      0.02634597     -0.00435199     -0.00387816     -0.00435199     -0.01597961" volume=997.153669
 H              4.68784103       1.81058220       6.74924299      -0.80166038      -0.47785801      -0.05712508      -3.07096509       0.58006410
 H              5.34534630       2.05551575       6.50816802       0.47974296      -0.14123249      -0.66749890      -2.88538785       0.58569226
 H              9.94566853       3.89627493       2.49562829      -0.13147852       0.21232173      -0.04400083      -0.78533136       0.92015065
 H              5.64319031       3.19020818       9.07289445       0.43261605       2.15233260      -3.69564565      -2.44879980       0.82160484
 H              8.76910183       3.05391999       6.15932739       0.92182588       0.19754990       1.84915111      -2.64567127       0.64467262
 H              4.00727499       4.51768719       1.57853043       1.21254361       0.87120079       0.57471767      -3.76882400       0.66176256
 H              9.13283923       3.08074245       6.93656201      -1.08791882       0.17373932      -2.45390105      -3.15709628       0.64784315
 H              1.94469260       4.98938434       5.67679556       2.29254298      -0.35216969      -1.81617245      -3.09111488       0.68734188
 H              5.64600960       2.54978831       2.99357006       0.46109854       1.06767447      -1.46111425      -3.67126558       0.68682784
 H              2.44658784       5.21652188       2.85201818      -5.65105167       4.34556145      -2.93966916      -3.57907375       0.74991667
 H              6.04201013       8.19182044       4.38322813      -0.32067955       0.55103032       0.76870170      -4.06496539       0.70075450
 H              2.15940688       9.21565631       6.46106189      -3.81265867      -2.12320436      -2.14070983      -2.82127590       0.54410209
 H              7.55041660       3.25458219       4.41555488      -0.09558457       0.35479724      -0.28910816      -1.34514710       0.91233658
 H              9.67375601       0.58610431       9.96946567      -2.00554610      -2.07966155       0.57243438      -3.74077506       0.66858827
 H              6.01118341       4.97988643       2.33569107      -6.16505359      -2.80013143      -4.55059130      -3.34170946       0.82577880
 H              7.37227605       0.03156471       2.79129077      -1.55823943      -0.03129017       0.22542720      -4.17405608       0.69871104
 H              7.12893078       3.81032712       1.25264648       3.02179008       0.72090481       1.07879962      -3.02881993       0.67152217
 H              2.66794999       9.48414655       6.72739792       4.18249498       2.14599751       1.95771512      -3.26489569       0.56411289
 H              5.35867009       1.51908774       3.75121103       3.44767391      -4.74680704       6.13811751      -3.08835262       0.70198691
 H              5.71028865       3.69876214       8.08878242       0.07609602      -0.96957249       4.38490764      -2.73732494       0.87164406
 H              2.15858494       8.49861589       9.37210041       0.88070730      -0.57087838      -1.73818368      -3.97065669       0.66902628
 H              0.06910693       9.64651193       8.16333161      -0.99474471       0.60943897      -2.35672270      -3.67193049       0.69473688
 H              8.49673490       0.88246980       7.81083680       1.54898441      -1.43519930       0.14777458      -3.84418181       0.66890068
 H              3.16774252       6.87669315       5.44536146       1.41833272       1.86785461       1.36764938      -3.51296495       0.75537932
 H              7.81084387       4.13023113       1.68165928      -1.73084243      -0.89242311      -1.01013876      -2.95217814       0.65385943
 C              3.60338332       2.85009865       2.84048545       0.25197724       0.24305609       0.43029405      -4.97166755       0.85895273
 C              4.70511944       1.81533307       3.12026432       3.79156712      11.09333006       2.29290000      -6.71692673       0.81146960
 C              3.60030761       0.57270980       1.21547927      -0.36502719      -2.93673572      -0.30017781      -7.41447529       0.87493288
 C              6.30757723       9.56618805       2.63571644       2.70280216      -3.56552743       1.37527522      -6.70873334       0.85448101
 C              8.85589302       9.76246865       9.56240670      -0.75291958       1.59443676       6.65868115      -7.14455289       0.84805923
 C              3.49565734       9.27915259       0.61189994       0.58455250       4.18589914       1.16935402      -7.25528182       0.87793200
 C              3.82374430       1.28112632       2.43684349      -8.00055342      -4.24408394      -7.21653083      -6.86823831       0.83844699
 C              3.09862714       5.10918691       4.76877119      -5.73987068       0.75931492      -1.39964651      -6.27550963       0.92437476
 C              7.88426724       8.82941147       7.54903374       2.12876865       1.87677830       2.51738737      -6.03057915       0.91371912
 C              6.80682927       6.60702048       3.30438020      -0.86860196      -3.38698123      -1.37238769      -7.01201045       0.85992555
 C              7.90384415       9.13630447       0.38244665       1.90083825       1.56492327      -0.75986579      -6.24762815       0.93275256
 C              6.97193941       8.23433933       8.40117883      -0.39271391       0.22982395      -3.44117004      -8.12248683       0.87743870
 C              6.63962701       7.07822818       7.70769513      -2.98714434      -4.94763997       3.38517813      -6.88213115       0.89548305
 C              3.95160871       4.54570363       2.76719791       7.48570848      -6.04756121      -6.33718737      -6.06948744       0.84131845
 C              3.26605080       8.69150465       9.34746359      -0.58253060       0.72030189       1.98771053      -7.96074320       0.83565349
 C              4.35916866       8.62701839       8.58150752       0.85652973      -0.82737978       0.81520715      -6.51232918       0.87765414
 C              8.92952697       9.83600982       8.22668002      -1.55292762      -0.98563718      -4.78032233      -8.03755724       0.83020076
 C              5.96482748       5.97626164       8.11234438       1.91732360       2.33959175      -2.51007790      -5.04693147       0.97876241
 C              6.65110712       5.27284563       2.94564237       6.74177813       6.66816780       5.44267678      -6.06273050       0.88078326
 C              5.79969721       9.41436856       0.41433316       0.85067558      -1.86378231      -3.89595945      -6.98522578       0.90375577
 C              2.56924075       6.56214102       4.64164658       0.65005327      -3.66087088      -0.04436829      -4.59073140       0.95186592
 C              5.97324438       8.81197446       1.57698030      -0.24466933       1.68772323       3.27998683      -6.02513590       0.88073286
 C              2.78689606       4.44164710       3.27883972      -2.24962300      -2.44561140       9.71549091      -5.82586429       0.85775105
 C              5.73137494       8.74428869       9.07709884      -1.88510708       1.63662035       0.49206700      -8.80442031       0.87361774
 C              6.50702741       7.87290178       3.46719928      -0.26187701       1.66186783      -1.34932928      -6.98539637       0.84146375
      50
 Properties=species:S:1:pos:R:3:forces:R:3:local_energy:R:1:hirshfeld_v:R:1 Lattice="9.9905032156        0.0000000000    0.0000000000    0.0000000000    9.9905032156    0.0000000000    0.0000000000    0.0000000000    9.9905032156" energy=-247.161223 energy_soap=-256.01550116  energy_2b=8.43405014 energy_3b=0.42022819 energy_core_pot=0.00000000 energy_vdw=0.00000000 energy_exp=0.00000000 energy_xps=0.00000000 virial="-8.71916322          -6.72667454      0.49943844     -6.72667454     -2.70472112      9.84299495      0.49943844      9.84299495    -13.25191498" stress="0.00874405            0.00674588     -0.00050086      0.00674588      0.00271244     -0.00987109     -0.00050086     -0.00987109      0.01328974" volume=997.153669
 H              4.68585251       1.74350618       6.73800864       1.00532701      -1.86418931       2.29604952      -3.26761419       0.56085724
 H              4.44552627       2.11038168       6.21565877      -0.88116717       1.35301086      -1.92400973      -2.64591992       0.58520809
 H              4.59986502       6.33807350       0.35484917       0.63223670      -0.17961394      -0.71256589      -1.92746939       0.79931095
 H              5.79132673       4.22223377       7.30817622       0.49405310      -0.98911350       3.38571517      -2.48753982       0.87662961
 H              8.95259160       2.11518321       6.03691364      -3.00490206      -0.27087444      -1.03248260      -2.78749384       0.74925361
 H              4.88308464       4.39903910       1.93424382      -3.00080617      -0.00780897       1.04343143      -4.06432233       0.74047845
 H              8.02182188       1.97360037       5.72878739       2.97187928       0.37181566       0.57461180      -2.35563141       0.75288715
 H              3.21768875       4.25256954       6.26275644      -1.86381479       2.87143146      -3.35636606      -3.08650388       0.71325185
 H              5.96056926       2.83042811       3.59594853      -3.45248782      -1.86335843      -0.55258916      -4.00291473       0.70864897
 H              2.26780492       4.31456546       0.14857392       0.49805451       0.00491217       0.79423528      -0.46287139       0.93402895
 H              5.80621487       8.14292755       4.22763532      -0.05786705       2.35049897       1.37226732      -3.87368354       0.70102622
 H              3.66607075       8.18761027       6.71815271      -2.00434562       2.08971986      -0.52389167      -3.26861580       0.69773444
 H              7.50149419       1.21158424       4.31560289       0.19354657       0.27092964       0.51348503      -1.74640220       0.84389123
 H              9.72328286       0.00525300       0.10774278      -1.30109666      -0.13073613      -1.50466225      -4.10383094       0.65717185
 H              5.78430693       5.76272851       2.21905456       0.27013201      -0.99558728      -0.51686058      -3.17597479       0.79435240
 H              6.52181525       0.85550955       2.75286343      -1.34710212      -1.88740259      -0.73636981      -4.01269480       0.76076593
 H              8.25944323       4.13487201       1.64406834      -1.59578389       0.14739098      -2.26419022      -3.22528433       0.64927650
 H              3.04378779       8.72917246       6.51719766       2.09181616      -1.86663579       0.70874871      -3.04999301       0.66653632
 H              4.23453440       1.90277616       4.07606115      -3.85183017      -3.86040778       9.37736061      -3.48949115       0.70684007
 H              5.92405993       3.85288003       8.48171192      -0.41377110       1.52837455      -2.87033198      -2.43031874       0.85102893
 H              3.17313003       7.73249493       9.32072441      -0.00622716       1.05609252       0.46977739      -4.31809385       0.68997313
 H              9.47289527       9.59907294       7.23264684       0.59514879      -0.09776791       0.47516725      -3.96814837       0.62774417
 H              8.47735646       0.93826982       7.85559207      -0.45580104      -1.45998846      -0.56409971      -3.94666427       0.65946678
 H              2.92163388       7.39836833       4.07687252      -1.49673122      -3.68607339       0.94890262      -3.95274548       0.67602892
 H              7.85043805       4.09651871       0.91323660       1.34143169       0.20617674       2.43537506      -3.12428728       0.65432853
 C              3.73344584       2.95479469       2.89126505      -1.31395004      -3.30549915      -3.02609813      -6.32415754       0.85814731
 C              4.81444986       2.19025569       3.44508591       7.37973927       2.09546041      -5.25987573      -6.19919613       0.81126185
 C              3.75492959       0.63947956       1.25593031       0.08489031       1.27865904       1.91525415      -7.61057741       0.87022525
 C              5.75270370       9.98115097       2.52517018       1.94079890       0.22653855       1.07060724      -6.19196686       0.86292337
 C              8.85381560       9.64960639       9.46264485      -3.19678167      -3.16337727       1.89210579      -7.29293770       0.83621114
 C              3.46238264       9.67392566       0.38455825      -1.22426638       3.39781000       2.91203976      -7.33207944       0.85418676
 C              3.99565959       1.45438787       2.35531457      -0.30204599       0.35074583      -2.19656457      -6.73115099       0.85297867
 C              2.58113369       5.06220483       5.12981129       1.73578205      -0.68908583      -0.55612376      -5.45010565       0.92816503
 C              7.52751725       8.88312171       7.54953096       1.67834083       2.64570418       2.06822214      -6.31757366       0.88888433
 C              6.80788693       6.48965811       3.25696041       2.53485938      -3.83923715       0.05974365      -6.20702779       0.85644496