50
Lattice="9.9905032156 0.0 0.0 0.0 9.9905032156 0.0 0.0 0.0 9.9905032156" Properties=species:S:1:pos:R:3:velocities:R:3:local_energy:R:1:fix_atoms:S:3:forces:R:3 temperature=5958.83625194 pressure=-3502.23985142 time_step=0.5 time=0.0 energy_soap=-377.84468791 energy_2b=110.45195744 energy_3b=-6.00185568 energy_core_pot=0.0 energy_vdw=0.0 energy_exp=0.0 energy_xps=0.0 virial="-25.01110264 5.85136695 -7.51093974 5.85136695 -10.55544908 16.82685233 -7.51093974 16.82685233 -46.45597375" volume=997.153669 step=0 config_type=iter_2 energy=-273.394586 stress="0.0250825 -0.00586807 0.00753238 -0.00586807 0.01058558 -0.01687488 0.00753238 -0.01687488 0.04658858" pbc="T T T"
H        0.76958095       3.33406086       6.21401382      -0.01092134      -0.06600282       0.07172040      -3.20481523 F F F       0.40535860       1.37503268       0.32319062
H        6.65194132       2.93927964       8.36247939      -0.05245898       0.02766564      -0.05452038      -3.37434746 F F F       0.35044362       0.42115489      -1.80796472
H        8.78239562       0.41084747       1.79312149      -0.00801834       0.03206469       0.02470420      -3.32713239 F F F       0.50936513       1.47798535      -0.20162825
H        0.44800048       8.29854385       2.61592551      -0.17862018       0.28355610      -0.36969209      -2.70377388 F F F      -0.49447666       1.51706002       0.27194265
H        5.72303969       3.70487088       5.76794891       0.03028166      -0.02436083      -0.00224610      -2.35518750 F F F       0.30301332      -0.62259745       1.59684122
H        9.00742247       5.37683886       4.76773293       0.07403718      -0.04669998       0.02838932      -3.44011429 F F F       1.04985530       0.63853408       1.03104801
H        3.60365421       0.49695706       0.95163413      -0.01973390      -0.02998652       0.00238752      -3.23961337 F F F      -1.81966848       5.80951140       0.71962487
H        0.82801319       2.66740235       6.25661304       0.03890062      -0.08231333      -0.00459158      -3.07876224 F F F       0.49716692      -0.84825145       0.33216390
H        3.15690219       6.24711692       2.59105174      -0.03910828       0.03544181       0.05532607      -3.01172453 F F F      -0.96521127      -0.42671323       0.71519759
H        6.51936315       3.02649477       3.49321441       0.01365821       0.02429060       0.12415555      -1.88087831 F F F       0.57938097       0.23261835       0.75790598
H        9.41199337       1.33145106       8.77757340       0.09577089       0.07301465       0.03540317      -2.98631894 F F F       0.17087645       2.43952194       1.49037922
H        1.55293854       6.49059823       7.87961449       0.06881965       0.00337475       0.05018822      -2.25412424 F F F       2.94223899       1.96370518      -2.74478797
H        1.98724523       1.13538851       3.03472864      -0.01522147       0.00128316       0.01995339      -1.67482385 F F F       0.72228146       0.69453410      -0.27085882
H        8.98844592       8.60057843       4.08657659      -0.00075447       0.10501845       0.05311146      -3.50019080 F F F       0.35885038       0.97160824      -2.43716784
H        1.35822795       9.72209376       5.77070116       0.07479216      -0.06134589      -0.05625163      -3.98113743 F F F       0.56448904       0.04098264      -0.50597329
H        1.35312115       0.15209831       3.67130886      -0.04535001      -0.00037688      -0.01127403      -2.59972099 F F F      -0.53136327      -0.02154771       0.39542298
H        2.72176118       5.82567709       3.11817293       0.06393425       0.02039787      -0.06968882      -2.89984489 F F F       0.61482859       0.91989850      -0.95433553
H        0.88974684       0.48351919       7.50338849       0.08749793      -0.01385211      -0.03415295      -2.70780247 F F F      -0.68512615       0.23250069      -2.98808191
H        2.31458822       6.89338942       7.05414229       0.08189300      -0.03704576       0.00970173      -2.21119890 F F F      -2.86832932      -1.58750183       2.82425926
H        2.29476724       1.96301666       3.19370698      -0.01733352      -0.05736902      -0.01995878      -3.28490804 F F F      -0.15080143      -0.97388058      -0.40893464
H        1.78456906       7.76574419       9.17958527      -0.07234832       0.03018436       0.13301491      -2.11950092 F F F       0.36561449      -0.25516379       0.06143441
H        9.38337863       2.09361789       9.13629897      -0.00413313       0.02775973      -0.01049119      -3.04419720 F F F       0.02300920      -2.02666152      -1.14390553
H        2.29278485       7.75178870       0.65118721      -0.03549138       0.03449579       0.02741927      -3.36947791 F F F      -2.27781464      -0.81769220       0.10281103
H        5.27929458       2.28052086       5.27896252       0.04655265      -0.15030269       0.31386717      -3.01852571 F F F       1.56839494      -0.69007809       2.00174793
H        0.00048460       1.42610087       4.52459459      -0.05133083      -0.09253082      -0.04333210      -2.55568169 F F F      -1.57847634       0.60317563       1.56153520
C        9.42231315       1.56125302       5.78613581      -0.00245639       0.01927150      -0.02474902      -7.33358251 F F F       0.78959254      -3.27087920       0.36813076
C        8.85086441       7.58035431       2.04946162      -0.02263914      -0.00730132      -0.00546064      -7.65020201 F F F      -3.82442280      -4.89131107      -0.74124090
C        7.17471405       0.30422933       8.71570131       0.01064974       0.01172315      -0.00088303      -8.96511219 F F F      -0.08433188      -3.91303073       1.74216318
C        7.46905600       1.10818319       7.74004851       0.00271147       0.00067802      -0.00410932      -7.59642880 F F F       0.23498912       1.02431007      -0.66236116
C        4.46340244       8.44144107       0.85816806      -0.00047883      -0.00153745      -0.01346232      -6.77773962 F F F       2.86091863      -1.88215194      -1.66737534
C        9.13432934       8.61497394       2.80999651       0.02788044      -0.00423703       0.00476629      -6.86290848 F F F       2.23170018       1.63320629       1.96201248
C        6.40915516       6.90056340       0.62820640      -0.01034016       0.01108984      -0.01649270      -7.92567309 F F F      -0.82769494       3.19976301      -0.20059034
C        6.38403774       2.66408871       5.97204634      -0.02428829       0.00939573       0.00624286      -8.11148834 F F F      -1.93219371       3.86218467      -2.15835359
C        7.68045241       6.86769941       1.48737376      -0.00336145      -0.00319549       0.01829863      -8.58680629 F F F       1.98872726      -0.50241296       0.96581519
C        6.13789130       4.89639129       2.30931405       0.03151350       0.00153107       0.02169547      -8.51785078 F F F       0.96133890       0.83850633       2.74570020
C        6.58895901       4.54246642       3.65676208      -0.00729377      -0.00670462       0.01005748      -8.47325235 F F F       3.33495194      -1.54638646       0.42733924
C        6.08891724       5.78108780       1.31092503      -0.00296564      -0.03174573       0.01518625      -7.81316788 F F F       0.00193194      -2.16623327       1.62259951
C        3.77281720       9.51792615       0.83208522       0.00372750      -0.00384603      -0.00180832      -7.83877921 F F F      -0.89030800      -5.11235341      -0.33996521
C        3.13221089       8.36287623       0.76979331      -0.02065638      -0.01556871      -0.00389545      -7.89614902 F F F       4.41199727       1.84532321       0.09174232
C        8.26084719       9.49016684       1.67895347      -0.00609961       0.02251010      -0.00560130      -8.12270266 F F F      -1.48434638      -3.69874281       0.76880901
C        5.86565676       8.49597444       0.39096951      -0.00030165      -0.01256742      -0.01000690      -8.24712976 F F F       0.79171777      -3.31728357       1.47844019
C        8.29542452       5.39250913       3.98106257      -0.00328588      -0.02272054      -0.00296429      -7.05001584 F F F      -3.46767475       0.86643488      -6.06512799
C        7.09488278       3.55796036       4.73504860      -0.00092077      -0.00895655      -0.02705733      -7.33507356 F F F      -0.07284323      -0.01650602      -0.62330765
C        7.03518240       2.55029017       7.36745647      -0.01829835       0.02536448      -0.00957492      -7.75993080 F F F      -0.38588977      -2.81232552      -1.72702598
C        6.89371994       9.06953765       9.48152226       0.01033733       0.00484535      -0.02164633      -8.89486881 F F F      -0.25745557       3.40009967       1.10769906
C        8.36054599       1.71839115       6.63917640       0.00497887      -0.01493697      -0.00470942      -9.33052610 F F F       0.78751650      -0.25655377      -0.10335334
C        0.55561783       0.38729294       5.94686607       0.00568164      -0.00023741       0.02704363      -5.94972664 F F F      -2.29250460       2.82966242       3.42336242
C        7.25149081       8.69580970       1.09701795       0.00154154       0.00544620       0.01544994      -9.56699980 F F F      -0.11940263       3.10105649      -2.89278826
C        8.32646418       3.36802760       5.41614818      -0.00631828       0.01185143       0.00824774      -9.03537869 F F F      -2.01999846      -0.45580856      -2.07938905
C        8.16493686       6.05512134       2.69414237       0.02014411       0.00679056       0.00246261      -9.92928978 F F F      -0.39021520       0.17369638       1.83519888
50
Lattice="9.9905032156 0.0 0.0 0.0 9.9905032156 0.0 0.0 0.0 9.9905032156" Properties=species:S:1:pos:R:3:velocities:R:3:local_energy:R:1:fix_atoms:S:3:forces:R:3 temperature=4755.58405969 pressure=27513.88201608 time_step=0.5 time=20.0 energy_soap=-386.76091736 energy_2b=120.92447795 energy_3b=-4.5924153 energy_core_pot=0.0 energy_vdw=0.0 energy_exp=0.0 energy_xps=0.0 virial="-2.44700517 2.7522126 -7.87509731 2.7522126 -1.35268633 1.22205478 -7.87509731 1.22205478 -5.06974808" volume=997.153669 step=40 config_type=iter_2 energy=-270.428855 stress="0.00245399 -0.00276007 0.00789758 -0.00276007 0.00135655 -0.00122554 0.00789758 -0.00122554 0.00508422" pbc="T T T"
H        1.79590190       2.36772479       7.03279598       0.10046377      -0.01890233      -0.03430217      -2.96545165 F F F      -1.23384698       0.31222706      -1.86646231
H        7.29591599       3.86972668       7.81877496       0.11720219       0.13264865      -0.02023726      -2.11824054 F F F       0.01009893      -0.65674431       0.01792244
H        8.00471158       0.77774831       1.88314029       0.01408445      -0.01472266      -0.00122874      -3.53600481 F F F       1.31591993       0.88921959       0.83631303
H        6.03063159       3.30222171       8.09783411      -0.29495866       0.18089359       0.09579150      -2.26555350 F F F       0.57034931      -1.11242327      -0.49407564
H        4.86939886       3.09016876       5.98190347      -0.05784479      -0.07172760      -0.04929609      -3.66933972 F F F       0.12252620       0.44497263      -0.42390608
H        9.28947631       4.99255377       4.26069358      -0.02424299      -0.05208972      -0.01346930      -2.95284229 F F F      -2.01146074      -0.85173555      -0.62629147
H        3.31070792       0.39520142       0.78623146       0.04370049      -0.00719254      -0.05419813      -3.33859810 F F F      -0.69509819       6.16880665      -0.42739604
H        1.23210852       2.46322504       6.43061597      -0.02247630       0.02111484       0.00986084      -3.16448413 F F F       0.82792324      -0.43547470       1.30534726
H        2.84190716       7.11785221       2.39352054      -0.03833208       0.02999438      -0.00843628      -2.90166277 F F F      -3.50696836       1.16410026       1.75637462
H        6.77545852       1.72651374       4.03870064       0.06456549       0.04672750       0.05072345      -2.17415140 F F F       0.61799352       3.02965469       1.53678653
H        0.34804551       3.21235460       9.04641876      -0.02815973       0.04867003      -0.01629069      -3.03726951 F F F      -0.29402937      -0.78126328      -0.53950409
H        3.55832965       6.83510736       8.28954015       0.04658842      -0.08221012       0.00990011      -2.61669259 F F F      -2.17663218      -3.68285912      -0.77299586
H        2.26510826       0.75075148       2.63600933       0.02296517       0.00113289      -0.01274000      -3.06996148 F F F       0.13251685       0.78245510       0.32176483
H        0.19817681       9.52887080       2.53057688       0.03961446      -0.08563140      -0.05612230      -2.88002047 F F F      -1.86475183      -0.40981674       2.02350099
H        0.78439431       0.43782236       5.12072963       0.01252868       0.02004209       0.00785489      -2.97637040 F F F       0.53274879      -0.57538104       1.47498170
H        9.78230307       0.15378031       4.17822999      -0.06315127       0.00296646      -0.01765647      -2.34065413 F F F       0.09318521      -0.22258369      -0.50940027
H        3.38890885       6.88626031       2.17797492       0.07200426       0.07299445      -0.05859136      -3.04215543 F F F       3.48674292      -1.48975643      -1.17700322
H        1.90401817       0.10565557       6.63340359      -0.10933177      -0.04764680      -0.06253010      -3.34854330 F F F      -2.82176908       0.50748359      -0.47853915
H        3.07957276       5.95583688       8.02199762       0.07803392       0.05820844       0.07716673      -2.54151699 F F F       2.07790532       4.04481214       1.17280450
H        2.45391810       1.50022301       2.83285507      -0.00070655      -0.05060588      -0.01369638      -3.07843741 F F F      -0.40792742      -1.20718015      -0.08571445
H        0.40319520       8.31350096       1.56782651       0.01332950       0.01730118       0.10437263      -2.45473292 F F F       1.93690956      -0.58284440      -1.58320710
H        0.18913440       2.59032632       8.59128877       0.08065289       0.07705562       0.02730267      -2.94491769 F F F      -0.32605744       0.65643108       0.79274712
H        1.21955156       8.36831861       1.12950800      -0.06399313       0.05477555      -0.02725221      -3.29879119 F F F       0.72949443      -0.20522100      -0.59176595
H        6.53576712       0.31360189       0.63935323       0.01538537      -0.00573632       0.21669456      -0.64762761 F F F      -0.95772943       1.39772234      -0.22944597
H        9.05790453       1.84260760       4.33443961       0.06537174       0.04221135       0.05708019      -2.90387587 F F F       1.59143282      -1.38470128       1.93915750
C        9.24020828       1.48416996       5.51812694      -0.00919577      -0.01255978      -0.01817399      -6.90978110 F F F       1.36892294       0.73298737      -1.99788677
C        8.58347000       7.54147853       2.42863923      -0.01478900      -0.01278170       0.02903278      -6.96066760 F F F      -3.44204731      -6.30599721       0.15912520
C        7.43394681       0.34538123       8.64165355       0.00762802       0.00618298      -0.01446003      -9.02465225 F F F      -3.06916244      -0.37184144      -0.49259554
C        7.55623201       1.44553027       7.62115863       0.00664215       0.01574262      -0.00328019      -6.83179828 F F F      -0.61813195      -1.75368134       1.15069881
C        4.71329121       8.23482457       0.41842986       0.01210915      -0.00907878      -0.02288253     -11.55948117 F F F      -2.14391117      -0.15888003       0.70193084
C        9.30718412       8.52796125       2.44075359       0.00492847       0.02485484      -0.03929165      -7.54893870 F F F       3.66815139       9.24171920      -1.16865900
C        6.25106910       6.77970346       0.79162444      -0.00737728      -0.02113386       0.02156849      -8.33436500 F F F      -2.16125982       4.10128699      -3.81223722
C        5.93238967       3.11220352       6.09544976      -0.01381802       0.02644429      -0.00063537      -7.91853825 F F F       1.14177845      -1.88783567      -1.87846976
C        7.36463505       6.61212990       1.64085778      -0.01247997      -0.01244150       0.00758274     -10.54273893 F F F       5.01152165       2.40464223       2.13699168
C        6.59563103       5.05876416       2.66708744       0.00498435       0.00802592       0.00574632     -10.43353347 F F F      -1.67732758      -2.96692281       1.83681606
C        6.84295699       4.37984764       3.90976322       0.01353154      -0.00463907       0.00047501      -7.48770176 F F F      -0.63962453      -0.58010182      -2.06139268
C        6.20915664       5.57111082       1.46334789       0.01466933       0.00866221       0.00566028      -5.70736096 F F F      -0.88362283      -0.50003231       0.52264284
C        3.51455359       9.42385474       0.84088435      -0.02238703      -0.01030289       0.00213268      -6.97800389 F F F       0.53783412      -6.40488696      -0.00927694
C        3.21523198       8.17145165       0.76776241       0.02053029      -0.00880454      -0.00040908      -5.12384057 F F F       1.72208724      -0.69589472      -1.06529555
C        8.15012800       9.74316451       1.67656661      -0.00236654       0.01054381       0.00851030      -7.82057533 F F F      -0.00874283      -2.32919221       0.68869030
C        6.20341524       8.27710354       0.26042378       0.02083735      -0.00259378      -0.00562327      -5.36427599 F F F      -2.54230429      -3.42176039       0.52102804
C        8.21478730       5.08416101       3.60374303       0.00647073      -0.01094500      -0.01808273      -8.64975372 F F F       3.92953546       0.36964963       1.93190398
C        7.09045754       3.25815332       4.60937858      -0.02128585      -0.03577928       0.00866950      -5.85108855 F F F      -3.01066236      -2.00998536       0.63855426
C        6.69560266       2.54965446       7.03401183      -0.01413616      -0.01423134      -0.02769586      -8.55203702 F F F       0.43648221       1.08722499       3.76562786
C        6.76899536       9.28294529       9.41485546      -0.01343278       0.01051120       0.01133395      -9.05739304 F F F       3.42846347       2.97763091      -0.81574966
C        8.57036313       1.41374717       6.61092494       0.00319084      -0.01011716       0.01113814      -9.52292136 F F F      -0.71632135       1.27018599       0.57975099
C        0.63117147       0.53405554       6.40633351       0.00790074       0.01968019       0.01581801      -5.80716676 F F F       1.75004983       0.69980782      -3.00292497
C        7.19976963       9.00597570       1.05314336      -0.00968398       0.00860362      -0.01994851      -9.78016972 F F F       0.80183172       1.20768727      -1.91163492
C        8.07774921       3.33041463       5.48974667       0.00167019      -0.02317814       0.02526447      -9.67480011 F F F       0.88588751      -2.12870541       2.02486623
C        8.49262640       6.21348362       2.88491111       0.00885451       0.01819654      -0.00016861      -8.71937528 F F F      -1.51890356       1.62299514      -1.81449700
50
Lattice="9.9905032156 0.0 0.0 0.0 9.9905032156 0.0 0.0 0.0 9.9905032156" Properties=species:S:1:pos:R:3:velocities:R:3:local_energy:R:1:fix_atoms:S:3:forces:R:3 temperature=4436.19866929 pressure=39362.31356847 time_step=0.5 time=40.0 energy_soap=-390.01674039 energy_2b=120.82594409 energy_3b=-1.26576393 energy_core_pot=0.0 energy_vdw=0.0 energy_exp=0.0 energy_xps=0.0 virial="15.73191098 -6.11729749 -3.91188354 -6.11729749 -6.04279673 4.15365514 -3.91188354 4.15365514 7.60973327" volume=997.153669 step=80 config_type=iter_2 energy=-270.45656 stress="-0.01577682 0.00613476 0.00392305 0.00613476 0.00606005 -0.00416551 0.00392305 -0.00416551 -0.00763145" pbc="T T T"
H        1.96984016       2.58698530       6.41071481      -0.00860521       0.03167390       0.04912256      -3.09268441 F F F       0.99687216      -0.80476072       1.14489815
H        9.33929047       4.62612025       7.20982821       0.10309399      -0.02298825      -0.01251274      -0.88641738 F F F       0.10020620       0.04425166       0.41280859
H        8.56803884       0.84511949       1.82702716      -0.05646767       0.03765178      -0.02175958      -2.91021870 F F F      -1.42482848      -1.18013973       0.24955117
H        0.23912290       6.59567365       8.91673616      -0.28745212       0.15659559       0.04778476      -1.11125990 F F F       0.55464123       0.16909662       0.57887010
H        4.63998722       3.44997065       5.70607663       0.03629904       0.05832105       0.09242465      -3.60517865 F F F       1.64135964      -0.73744108       1.07274788
H        9.33639061       4.06881773       3.32520654       0.04766950      -0.04213766      -0.06129708      -3.53661672 F F F       0.36238384      -0.56333791       0.33794751
H        3.54229177       0.11104797       0.31847644      -0.10273164      -0.03378082      -0.01017810      -3.99572008 F F F      -0.21061603       1.13788380      -1.08127419
H        2.54712148       2.27205478       6.88501220       0.10766871       0.00854494      -0.00341847      -3.00868104 F F F      -1.16464518       0.84439484      -1.11058403
H        3.06327539       7.06004339       2.86524234       0.05381015       0.04178913       0.00354049      -3.02068441 F F F      -0.48187820      -0.04506148       0.70970695
H        6.53665433       0.61385407       3.48856915      -0.06093661      -0.10652182      -0.02802659      -1.09487260 F F F       0.93340092      -0.24507502      -0.00660931
H        0.42238985       4.28648420       8.84253422       0.07527199       0.07328933       0.00897186      -2.86841688 F F F       0.20671502       0.12750079      -0.05477229
H        4.58945698       6.28374613       9.25543047      -0.01667433      -0.08692600       0.01393118      -3.07245443 F F F      -0.06769040       0.95270741      -1.12318890
H        2.79674476       0.00149018       1.98301346       0.02689680      -0.05336955      -0.01865147      -3.37110886 F F F      -0.33109850      -0.17894929       1.07758440
H        9.36701394       9.46535161       3.43690493      -0.02891264       0.02927807      -0.00843741      -2.01097306 F F F       0.92484040       0.23059261      -0.79842746
H        1.43159862       0.35668404       6.01221010      -0.02790503      -0.02214512       0.05897478      -3.96124703 F F F       1.45897553      -0.51738394      -1.17423734
H        8.92608415       0.61460606       4.97154631      -0.00596762      -0.00586458       0.04597271      -2.37253006 F F F      -3.45664358      -5.33911595      -5.06724400
H        3.22944271       7.35298204       2.27692796      -0.05052108      -0.05952826       0.05441192      -3.34033463 F F F       0.08156034       0.96182385      -1.34378173
H        0.08714561       9.98662964       6.64246091      -0.00328210       0.13570937       0.03380242      -2.73517383 F F F       2.13276950      -1.90594040       1.73862755
H        4.38927493       5.67025027       9.26228659       0.06802718      -0.02476201       0.04284950      -3.10444649 F F F      -0.89976487      -2.41978114      -0.41289908
H        2.34011911       0.32641340       2.71490426       0.00838150      -0.08136963      -0.02012473      -2.95677329 F F F       0.45933734      -0.17738169      -0.08188053
H        1.16858953       7.86487504       0.27339262       0.01682187       0.01025738      -0.12140042      -2.03282886 F F F       0.56895641       0.52998736      -0.42942683
H        1.01795898       4.60079725       9.21056429      -0.02167506       0.11924869      -0.00174771      -3.03737567 F F F      -0.45125667       0.06688323      -0.15767117
H        1.94398887       9.11985026       0.55014756       0.06630988       0.04056182      -0.05823796      -3.83705393 F F F      -3.60868913      -1.36691994      -1.31039343
H        6.73416543       0.97973762       5.27009737       0.02810927       0.02502579       0.15192870      -1.75189027 F F F      -1.45862515      -2.24636993      -2.59706524
H        0.00095894       1.86334149       4.75534404       0.00052313       0.06169989      -0.13566291      -3.43313045 F F F      -0.11890780       1.05576863      -1.20353902
C        9.41775066       1.21519195       5.47021047       0.03259267      -0.01724775       0.00521708      -6.16409092 F F F       4.14875653       4.76306328       1.70935880
C        8.45700487       7.84119047       2.56667767      -0.00056355       0.01331533      -0.01569637      -9.35779595 F F F      -0.23670904      -3.37089281      -1.50675619
C        7.12175951       0.51994264       8.38869136      -0.02467973       0.01566983      -0.01488295      -9.22858640 F F F      -0.42808421      -0.88719189       0.73757763
C        7.50217354       1.52369054       7.61369771      -0.01060267      -0.00303440      -0.00893698      -5.74486542 F F F      -0.12143337       0.44509610      -1.90665210
C        4.94436321       7.95313441       0.02728369       0.03142342      -0.01669662      -0.01564621      -7.23422769 F F F       1.54740994      -0.38444310       1.45863315
C        9.18961097       9.01162104       1.94500789      -0.00063575      -0.00828298       0.00993617      -6.46063499 F F F       1.33998102      -2.45020507       4.18140314
C        5.99224838       6.84821741       0.76854901       0.00041007      -0.00871035       0.00796249      -9.47790858 F F F       2.92521287      -2.15419218       3.23014916
C        5.75051085       3.16827379       5.92502193      -0.01168634      -0.02026485      -0.01388189      -6.87538753 F F F      -3.40450116      -0.72541135       1.47916097
C        7.67301260       6.77780205       1.95329925       0.01999223       0.02316342       0.01715959      -8.24367017 F F F      -1.77385881       0.48372547      -0.08944364
C        6.54091718       4.80658913       2.89413766      -0.00433366      -0.01997650      -0.00000448      -9.16922644 F F F       1.07497601       0.70763818      -2.70084631
C        7.02197873       4.00057922       3.92024934       0.00477570      -0.02291866       0.00056513      -8.19042299 F F F       0.79600738       2.28411555      -1.78605066
C        6.39986911       5.63288633       1.76174030       0.01066084       0.01790191       0.02096949      -7.43255980 F F F       0.60530927       3.01409756       0.65276162
C        2.91245981       9.37736429       0.80680876      -0.02823134      -0.00767412      -0.00222122      -5.78838826 F F F       3.51185638      -2.27112493       0.96228608
C        3.77486953       8.02450137       0.63284403       0.01035145       0.01125527      -0.00212465      -8.87088625 F F F      -3.65485886       2.06413934       0.88836013
C        8.07183922       9.73365760       1.74281023      -0.01946105       0.01282530      -0.00941149      -6.57727097 F F F      -0.42151734       4.78076557      -0.47136919
C        6.29901788       8.11702977       0.17813788       0.00924192       0.01546039      -0.00247015      -7.79955235 F F F       3.34769487       2.75061271       1.19010684
C        8.52547451       4.77305328       3.49539138       0.00722052      -0.02319628       0.00648389      -7.75749775 F F F      -2.99788760       1.05050814      -0.19869887
C        6.69852431       3.22213223       4.96053751       0.00273400       0.03162328       0.01004499      -7.35981729 F F F       3.25510181       1.38660632      -1.91354537
C        6.60074764       2.31165587       6.79905931       0.00056278      -0.00092929      -0.00156159      -9.12639604 F F F      -1.49649454       2.37425287       1.61585922
C        6.91016978       9.66413935       9.36239664       0.01159755       0.00702674       0.00585036      -8.65371448 F F F      -0.42404336      -1.59115806       2.27594142
C        8.61333382       1.35515243       6.61868945      -0.01205586       0.01007342       0.00567300      -9.21105646 F F F      -1.25740721       3.99721020       1.58973828
C        0.57258939       0.90478661       6.22175721      -0.00873113      -0.00366606      -0.02041663      -7.08190240 F F F      -0.63018272      -1.33336982       1.97188883
C        7.26876686       9.35144542       0.75892112      -0.00067601       0.00425892      -0.01491888      -9.57820380 F F F      -3.24237407      -3.51665319      -2.48563105
C        7.99440275       2.77436871       5.98993346      -0.01258206      -0.03192131       0.01673479     -10.06485401 F F F       0.33918907       0.62792400      -0.86545944
C        8.46603008       6.12685176       2.98682097      -0.00461207      -0.00246393       0.00697675      -8.85957166 F F F       0.45048261      -0.43834547       0.61147978
50
Lattice="9.9905032156 0.0 0.0 0.0 9.9905032156 0.0 0.0 0.0 9.9905032156" Properties=species:S:1:pos:R:3:velocities:R:3:local_energy:R:1:fix_atoms:S:3:forces:R:3 temperature=3983.39855122 pressure=13934.93847031 time_step=0.5 time=60.0 energy_soap=-391.90079667 energy_2b=125.2848311 energy_3b=-1.35938631 energy_core_pot=0.0 energy_vdw=0.0 energy_exp=0.0 energy_xps=0.0 virial="-11.07270138 15.59731708 -4.07802839 15.59731708 -0.10962048 -4.22727461 -4.07802839 -4.22727461 -13.25903608" volume=997.153669 step=120 config_type=iter_2 energy=-267.975352 stress="0.01110431 -0.01564184 0.00408967 -0.01564184 0.00010993 0.00423934 0.00408967 0.00423934 0.01329688" pbc="T T T"
H        2.96276838       2.28225780       7.18505754       0.03551189      -0.01774443      -0.00953658      -3.03070886 F F F      -1.28816923       1.29811427      -1.21705404
H        2.01505619       4.68389866       8.11478208       0.15341554       0.03984933       0.08745358      -1.34370804 F F F      -0.03224807       0.46956932      -0.04383070