      50
 Properties=species:S:1:pos:R:3:velocities:R:3:forces:R:3:local_energy:R:1:fix_atoms:S:3 Lattice="9.9905032156        0.0000000000    0.0000000000    0.0000000000    9.9905032156    0.0000000000    0.0000000000    0.0000000000    9.9905032156" temperature=5636.86190036 pressure=-42807.28901974 time_step=0.5000 time=0.000000 energy=-229.521296 energy_soap=-235.95941695  energy_2b=3.08208499 energy_3b=3.35603567 energy_core_pot=0.00000000 energy_vdw=0.00000000 energy_exp=0.00000000 energy_xps=0.00000000 virial="-53.81606982         14.81798997      5.96644442     14.81798997    -46.24313259     -2.81455614      5.96644442     -2.81455614    -51.27208681" stress="0.05396969           -0.01486029     -0.00598348     -0.01486029      0.04637513      0.00282259     -0.00598348      0.00282259      0.05141844" volume=997.153669 step=0
 H              2.98693673       3.68570449       6.14641833      -0.00270778      -0.01550241      -0.00015706      -0.45517663       0.67520357      -0.73480827      -3.00170732 F F F
 H              9.94416143       7.98803904       4.63417945      -0.05325447      -0.03665042       0.10237904      -0.94350080       1.32746558       2.47694158      -3.09547543 F F F
 H              5.82256425       4.87735590       7.15959367       0.13263090       0.00459873      -0.05445921      -0.41322388       2.39417591      -0.45677465      -3.09112000 F F F
 H              4.82808761       3.23682495       8.11648010       0.04447922       0.04854285       0.05060395       2.72961286      -1.71804131      -1.03280342      -3.11864795 F F F
 H              4.96904617       5.53146736       5.86001274      -0.06917928       0.13730894       0.05946957       0.20870086       0.76203573       2.51441944      -2.74235864 F F F
 H              8.63242786       3.45839976       1.11654302       0.14441802      -0.05964755       0.06763642      -1.12550134      -0.59296039       0.04717689      -1.87035473 F F F
 H              4.83041605       1.07830931       1.28206371       0.01661253       0.05940986      -0.12528863       0.16369944       3.60922315      -0.25378930      -2.13401754 F F F
 H              5.11012588       8.24230213       9.26713726      -0.00993064      -0.03343429      -0.00298856       3.63685328      -1.12049075       0.34629705      -2.88864350 F F F
 H              7.42180207       6.81788405       6.77103095      -0.00398513       0.12782206      -0.00444212      -1.15648272      -0.17930959       0.72093515      -2.49088747 F F F
 H              2.37901816       5.39900303       5.45955644      -0.01598074       0.04212395       0.02883826      -0.27417123       0.18925130       0.05763920      -3.55500195 F F F
 H              5.97794309       8.02652242       9.47169419       0.02424989      -0.08009422       0.01446883      -3.84658832       0.63667482      -1.38911618      -2.84230542 F F F
 H              4.63933246       6.95147536       6.91941061      -0.06873558       0.02034365       0.02113606      -0.01718509      -0.04290955       0.67028930      -3.97897427 F F F
 H              3.74795867       3.06374494       0.57657932      -0.02822822       0.08774538       0.08072295       1.54193537      -0.98776510       0.88923790      -2.11687784 F F F
 H              0.43097699       5.81006333       7.30491526       0.11160474      -0.00088651      -0.06055546       0.18344334       1.94609935       0.60818384      -2.85436747 F F F
 H              2.40148256       1.80961105       4.43130365       0.01112504      -0.00416047       0.02493224       0.23305012      -0.58151080      -1.95007600      -2.05654382 F F F
 H              0.26364097       1.04108987       6.08308747       0.01071037      -0.00046855      -0.04581752      -0.94534513      -3.42563294       0.86854802      -2.29966278 F F F
 H              6.43606481       6.49635409       7.31258388      -0.07453678      -0.09438443       0.12398572       0.26100963       0.50916691      -0.72135781      -3.34662289 F F F
 H              7.96341662       1.18641344       6.24355744      -0.09176815      -0.04634836      -0.06624230      -0.72042627       0.34687162       1.22106248      -2.94056204 F F F
 H              4.85976074       4.00200290       0.60267805       0.01156028      -0.00457903      -0.00251131       0.04671724      -1.39220198       0.23646446      -1.77013004 F F F
 H              7.68852267       8.66380001       4.05111186      -0.02702815       0.10735048       0.03587564       0.35489699      -3.07707856       0.12722602      -2.29089347 F F F
 H              4.67483687       5.55986856       8.25012736      -0.08271937       0.01870515       0.07286818       0.73487706       1.86108143      -1.09113683      -3.95183229 F F F
 H              1.22499111       3.82801986       3.71165715      -0.07403854      -0.00699955      -0.03595071      -3.68740332       0.33093036      -1.57655697      -2.00633735 F F F
 H              4.65149090       1.73610540       5.48956905      -0.05683507       0.07044334       0.12227317       1.01816958      -0.62938014       1.40328796      -3.35005092 F F F
 H              0.97354944       7.86042901       0.30795094       0.10558759      -0.01380736      -0.01309320      -1.98207097       1.26188998       1.32556009      -3.28077568 F F F
 H              9.16166721       9.27187779       1.53659077      -0.05829751      -0.10631321       0.07181727       1.13086774      -2.50906320       1.18651053      -1.46004636 F F F
 H              0.45866575       6.65323894       7.60607539       0.11967411       0.03203447      -0.06191641      -0.52779516      -1.18985125      -1.12721845      -2.95495450 F F F
 H              2.99205268       4.73210994       2.50489854      -0.01156362       0.07921446       0.15959213       0.87587110      -1.69462196       0.98503895      -1.90512476 F F F
 H              7.70416014       9.96458335       5.13382385      -0.07753077      -0.14802271       0.02293162      -0.36377856      -0.68853752       0.37710186      -2.21072745 F F F
 H              7.75665824       7.34499941       3.83067426      -0.07181294       0.02923706      -0.02153654      -0.02763583       3.49525731       0.66601954      -2.00228085 F F F
 H              5.62786983       3.07300412       7.79016013      -0.07809473      -0.02065278      -0.01878974      -3.34240145      -0.21411924       0.37790435      -2.65308999 F F F
 C              5.22450895       1.27258846       6.41657046       0.00028253       0.01424128       0.01089367       2.59913609      -0.90634632       2.89259948      -5.69673140 F F F
 C              9.98076833       9.55071621       8.10208370       0.04241689       0.00709386      -0.00167561      -1.38653977       0.28549379       0.14374031      -7.48266209 F F F
 C              9.75169353       9.74454628       6.44202761      -0.01417122      -0.01100445      -0.00771743      -2.61061407      -1.44999576      -0.00322826      -6.57282476 F F F
 C              5.21943877       6.03687162       7.29388170      -0.02853956      -0.01195439      -0.02154296       2.01764892      -2.20226616      -0.96844762      -6.46691226 F F F
 C              9.17133556       1.38203672       0.77947830      -0.00048137       0.01370741       0.02567016      -4.08220324       0.37518620      -3.04542436      -6.02277707 F F F
 C              2.60619861       2.38191025       3.32473256       0.00766268      -0.01416391       0.00188982       2.79801078       2.45155014       2.01123778      -6.71014010 F F F
 C              8.14481959       0.13113128       6.62665224      -0.02265700      -0.02678499       0.01760831       1.92363785       1.35358847      -0.22637202      -7.89740963 F F F
 C              9.51821233       9.74085299       9.81722523       0.03411657      -0.00740395       0.01522976       1.51265039       0.96636712      -0.98184128      -8.27197020 F F F
 C              5.01389878       2.61105489       1.37420239       0.02074385       0.02694585      -0.02520612      -1.91055609       1.27712052       1.95622193      -7.85442936 F F F
 C              7.71709139       2.25027435       1.03564745      -0.02773791      -0.02260775      -0.00497048       1.37055645       1.17613185       0.63186628      -8.70530009 F F F
 C              2.46182464       4.31228134       5.15562549       0.02191069      -0.00480073       0.00555081       0.84089978      -1.94190119      -0.34781528      -7.86951290 F F F
 C              6.79395153       1.36496484       8.69472907      -0.01740792       0.01422708      -0.00606112       5.62767147       0.78196544       3.73544304      -7.03068394 F F F
 C              2.02658520       3.47034108       4.21594661      -0.01530874       0.01111017       0.00098726       3.08690465       0.58837759       0.08715663      -8.84419660 F F F
 C              6.14754619       0.73840637       7.80229495       0.01665882       0.06277220       0.00694328      -3.25938523       0.53832142      -6.61778828      -6.95549680 F F F
 C              0.39571386       8.29446087       7.74301658      -0.00785743       0.01439127      -0.00137154       0.40113698       0.17509489      -0.13426401      -7.84375123 F F F
 C              0.07832810       8.66510226       0.51490629       0.01705798      -0.01402804      -0.01401557      -0.88144144       2.82923952      -3.47376287      -6.74190496 F F F
 C              8.54065690       1.37938596       9.33355520      -0.01491456      -0.01929907      -0.02671319      -3.06355600      -1.94562523       1.00363637      -7.55826527 F F F
 C              3.75187819       3.26960433       2.83120129       0.04197132      -0.00536919      -0.00537216      -1.11272022      -1.89456419      -1.76153191      -8.83268214 F F F
 C              9.47008989       8.56788859       5.61202668      -0.01384431      -0.02333556       0.00109789       1.84992377       1.53109846       0.10448321      -8.24201553 F F F
 C              6.32709335       2.85635515       1.54158297      -0.02109944      -0.01996175      -0.01712320       0.98782104      -3.29068929      -1.77811587      -7.66125523 F F F
      50
 Properties=species:S:1:pos:R:3:velocities:R:3:forces:R:3:local_energy:R:1:fix_atoms:S:3 Lattice="9.9905032156        0.0000000000    0.0000000000    0.0000000000    9.9905032156    0.0000000000    0.0000000000    0.0000000000    9.9905032156" temperature=5925.44847180 pressure=3452.67311909 time_step=0.5000 time=10.000000 energy=-234.369734 energy_soap=-231.97657907  energy_2b=-8.22020531 energy_3b=5.82705014 energy_core_pot=0.00000000 energy_vdw=0.00000000 energy_exp=0.00000000 energy_xps=0.00000000 virial="-29.52306205          9.32863620      9.61166553      9.32863620    -20.02510887     -5.15236538      9.61166553     -5.15236538    -19.06573687" stress="0.02960733           -0.00935526     -0.00963910     -0.00935526      0.02008227      0.00516707     -0.00963910      0.00516707      0.01912016" volume=997.153669 step=20
 H              2.99207043       3.80142363       6.13819710       0.01887080       0.01137358       0.03076697      -0.02435154      -0.25736922      -0.14813471      -3.72091977 F F F
 H              9.62725197       7.28520922       5.28506492      -0.03314628       0.00692010       0.06397585      -0.82985716       3.94928309       0.99823445      -2.96194877 F F F
 H              6.51784795       5.55393948       6.55669692      -0.00901263       0.09043697      -0.04998160      -1.99768028       0.34675126       0.64450589      -2.34402206 F F F
 H              5.26631732       3.44618659       8.31931015       0.00071480       0.01124911      -0.05410110       0.02868674       1.24954076      -0.64969852      -3.19138719 F F F
 H              4.26825251       6.57216195       6.13084313      -0.05540872       0.04211379      -0.05594391       1.41286057      -1.45067971       1.22341762      -3.01780223 F F F
 H              9.72324018       2.37969279       1.63518122       0.07308033      -0.19080363      -0.00045790      -1.60991237      -2.42360058      -2.02922354      -2.62575846 F F F
 H              4.76476933       2.42487139       0.06655379      -0.06277287       0.10476829      -0.10461321      -1.31758295      -1.24972760       1.71355317      -2.64915806 F F F
 H              5.30403583       7.86666768       9.24452858       0.04520486      -0.06527723       0.02280091       2.00239640      -1.73576903       1.31246401      -2.90014501 F F F
 H              7.10484874       8.12571849       6.73176075      -0.03359563       0.13591678      -0.01179852      -0.12614624      -0.40621394       0.47917681      -1.86588678 F F F
 H              2.35126306       5.22142066       5.49724478       0.00973215      -0.05510422      -0.01860252      -1.27449710       1.73170733       0.99674448      -2.92123688 F F F
 H              5.90110961       7.21163751       9.49038470      -0.02652253      -0.03089325      -0.00131701      -1.58500852       2.50086262      -0.31864414      -2.85058793 F F F
 H              4.32930366       7.18982121       7.54966960       0.00512705       0.02664405       0.06794550       0.67764808      -0.91155194      -1.58098420      -2.44276706 F F F
 H              3.85931826       3.50425070       1.49984520       0.00103833       0.02125771       0.11379985      -0.57589116       0.07806597       0.31059291      -2.22465888 F F F
 H              1.60397880       6.15648487       6.85173375       0.11057214       0.05343869      -0.03216896      -0.43721157       2.50412735       0.40524794      -2.81389729 F F F
 H              2.71686762       1.38501871       3.93641305       0.04642333      -0.07214688      -0.07876493       0.00850042       1.37436399      -0.67039198      -3.17188208 F F F
 H              0.21874778       0.24904679       5.81056078       0.06649143       0.01140046      -0.07248416      -0.43216323       0.39811129       0.49881659      -2.33378701 F F F
 H              5.78847650       5.90810772       7.99232895      -0.02602504      -0.06496811       0.00363960       1.37725998      -0.90563206      -1.28086037      -3.49827432 F F F
 H              7.36991182       0.51759768       5.98650403       0.01752110      -0.09951826      -0.02077425       1.51403169      -0.07740621      -0.46423846      -2.49267392 F F F
 H              5.25504222       3.79915291       0.54071720       0.07750627       0.05392297      -0.03645649      -0.01421638       2.21024817       0.45869202      -2.45032300 F F F
 H              7.39229135       8.92045433       4.61662987      -0.02816869      -0.03072787       0.07237905       0.26323431      -1.01242757      -0.79345890      -1.23409355 F F F
 H              4.27687320       5.78562699       7.97377758      -0.05275318      -0.05117559      -0.08041307      -2.57304695      -2.26674221       1.01552696      -3.57892054 F F F
 H              0.92943105       3.52260694       3.85232905       0.04554095      -0.03445341       0.07783211      -2.80835085       0.59487468      -0.46118462      -2.82797782 F F F
 H              4.36958136       1.98276145       6.42620197       0.00737858      -0.06971830       0.00410242       0.98992515      -2.69199193      -2.27668854      -2.80262328 F F F
 H              1.09981296       8.07108187       0.64650679       0.03198352      -0.04354609       0.06879400       0.67190756      -1.62185172       0.31160331      -3.06926280 F F F
 H              9.20993608       7.80551676       1.98540679       0.06099286      -0.12991193      -0.02979118       0.89336025       0.85038913      -1.75301619      -1.31030630 F F F
 H              1.31764860       7.02358968       6.85970966       0.06028393       0.05953036      -0.05242776       0.05047993      -1.40128099       0.72713869      -2.99518245 F F F
 H              3.17875589       5.00957012       4.30653031       0.03586682       0.00141103       0.20339972       0.90053930      -0.74995904      -0.15224716      -2.62232736 F F F
 H              6.85904588       8.28266293       5.23195610      -0.08120114      -0.16585939       0.01569463      -0.16341244      -0.66556453       1.07289928      -2.62825161 F F F
 H              7.21912220       8.46628036       3.74506048      -0.02111503       0.13972862      -0.03705050       1.01253065       0.60932395      -0.90177049      -3.03087432 F F F
 H              4.73659932       3.16936010       7.90031002      -0.03786367       0.10912711       0.10306606       0.22325112       1.54214102       0.16199179      -3.00397177 F F F
 C              5.32142698       1.38357814       6.69348582       0.00716565       0.01386567       0.03842621      -7.83130606       3.06862636      -3.57825410      -7.40521055 F F F
 C              0.34861738       9.67533341       8.12868957       0.02737276       0.01741932       0.01047727      -2.54213246       0.03644510       1.88229982      -7.49583216 F F F
 C              9.48534257       9.55301952       6.36931533      -0.04249426      -0.03128953      -0.00092507      -0.98177127       1.86890369       2.20048591      -5.73879325 F F F
 C              4.98402676       5.89926924       7.19254139      -0.02049799      -0.00758543       0.00379643       0.42944429       3.69541421      -1.12569020      -6.50464163 F F F
 C              9.00118133       1.51264107       0.92201202      -0.03089854       0.01440731       0.00490116      -1.80789780       0.81552588      -1.20927899      -6.26014141 F F F
 C              2.77196156       2.42056294       3.42462113       0.02434457       0.02571260       0.01553419       1.99763197       4.34266631       1.24049363      -7.71272823 F F F
 C              7.98234994       9.92557874       6.78998128      -0.00956927      -0.01254148       0.01563648       1.88282862       1.52759004       0.01357248      -8.88540175 F F F
 C              9.84811808       9.75405314       9.93660351       0.02555870       0.01461020       0.00793549      -2.28738738       3.77586233      -1.31214884      -7.46818240 F F F
 C              4.98974966       2.92328366       1.15352054      -0.01900058       0.03328567      -0.02042189       1.24637328      -0.56302142      -0.86071685      -6.92923866 F F F
 C              7.50160220       2.04142954       0.99495167      -0.01244281      -0.02270474      -0.00408543       4.37778975      -1.69857828      -0.67839356      -9.00462890 F F F
 C              2.63469416       4.24451374       5.14967414       0.01009475      -0.00633708      -0.01366432       0.44946804      -0.50875070      -2.99832878      -6.96828367 F F F
 C              6.85832305       1.58123221       8.85893701       0.01949232       0.02177432       0.02363778       1.26342935      -1.20622081      -1.65776594      -7.90942378 F F F
 C              1.90420166       3.61261779       4.16311481      -0.00741163       0.01000190      -0.01168880       5.19990736      -4.33401024      -0.29013393      -8.48912243 F F F
 C              6.12211079       1.32177551       7.56005735      -0.00667434       0.05488639      -0.03114422       7.34361144      -1.36405110       8.13849974      -7.41759955 F F F
 C              0.32931702       8.39811346       7.69506870      -0.00656726       0.00680442      -0.01012369      -0.00488275       0.61068327      -1.55192767      -7.82451907 F F F
 C              0.23903743       8.58992297       0.32933637       0.00979458      -0.00043655      -0.01629370      -1.30255151       1.07130036       1.51991719      -7.19775203 F F F
 C              8.32206872       1.11936494       9.12268107      -0.02250095      -0.03115976      -0.01345050       0.80472442      -1.04254119       2.14620073      -7.62442019 F F F
 C              4.11705137       3.09136566       2.73595361       0.02856266      -0.03149158      -0.01215078      -3.24335761      -2.40094899       0.27761128      -8.13273873 F F F
 C              9.33616573       8.45854137       5.77078554      -0.01517214      -0.01475302       0.02386539      -0.41727558      -7.00176439      -1.25202226      -9.21356599 F F F
 C              6.33854305       2.56837801       1.34341999       0.02009348      -0.03555828      -0.01960087      -0.83392950      -0.80515277       0.24551629      -8.60660135 F F F
      50
 Properties=species:S:1:pos:R:3:velocities:R:3:forces:R:3:local_energy:R:1:fix_atoms:S:3 Lattice="9.9905032156        0.0000000000    0.0000000000    0.0000000000    9.9905032156    0.0000000000    0.0000000000    0.0000000000    9.9905032156" temperature=5193.64076280 pressure=5643.01725983 time_step=0.5000 time=20.000000 energy=-232.063894 energy_soap=-239.39342760  energy_2b=2.03303937 energy_3b=5.29649398 energy_core_pot=0.00000000 energy_vdw=0.00000000 energy_exp=0.00000000 energy_xps=0.00000000 virial="-15.68505696          5.88057117     -2.60517841      5.88057117    -11.90982174     -6.80741598     -2.60517841     -6.80741598    -27.65923065" stress="0.01572983           -0.00589736      0.00261261     -0.00589736      0.01194382      0.00682685      0.00261261      0.00682685      0.02773818" volume=997.153669 step=40
 H              2.97086424       3.53157258       5.95835855      -0.02367925      -0.06482996      -0.07931123       0.04712655      -0.37950315      -0.23325545      -3.00572647 F F F
 H              9.30348866       6.96401264       5.51090530      -0.02330412      -0.03833194      -0.00423668       0.07685166       4.38989004       1.28239449      -2.88817255 F F F
 H              5.60470466       6.67151397       6.22275759      -0.11389992       0.13121448      -0.04281803       1.66805654      -0.25223979      -0.25779391      -0.62478014 F F F
 H              5.23217864       3.80975387       7.72039616      -0.07037889       0.01052220      -0.02780594      -1.14331988      -1.14847149       1.59665720      -2.23488949 F F F
 H              4.37770393       6.49087271       6.14694354       0.03048026      -0.06348073       0.03113208      -1.42870911      -1.53623489      -0.07926169      -2.58899081 F F F
 H              9.70332473       0.29384078       0.99470897      -0.03571998      -0.16768021      -0.10137999       0.52340357       1.63265077       1.07861508      -1.10643641 F F F
 H              4.12741309       3.10306106       0.28019146      -0.05233489       0.04556940       0.08738759      -1.70747310      -0.45823304      -1.37666614      -3.31599639 F F F
 H              5.69446649       7.49441218       9.56546174       0.05949626      -0.08932954       0.04362320      -0.44802075       1.94207364      -0.41402860      -3.03922484 F F F
 H              6.70610541       9.49494592       7.00828156      -0.01846817       0.15806436       0.07570839       0.71961274      -0.37519594       0.74526997      -2.88983724 F F F
 H              1.61472724       5.01427920       5.44814241      -0.07823956      -0.05237928      -0.03585421       1.64706163      -0.23997830      -0.23514723      -2.35892552 F F F
 H              5.87611005       6.84544037       9.71074139      -0.01483177       0.01383537       0.01735186       0.61706347      -2.02910489       0.53681021      -3.16245269 F F F
 H              4.71609685       6.78916844       7.59833463       0.03978406       0.00981135       0.06498756      -1.40028267       6.58629307       5.43299530      -3.58797321 F F F
 H              3.60802121       4.12240327       2.27190658      -0.01774120       0.08344934       0.05196995       0.48231460       0.14852506      -0.27140578      -1.34364564 F F F
 H              2.58082839       7.23447026       6.70473872       0.05089023       0.12498150      -0.01285913      -2.68056948       0.76552668      -0.31374082      -3.15439976 F F F
 H              3.02774317       1.75362003       3.01020744      -0.00941562       0.07456628      -0.06846820      -1.26549772      -1.21916315       0.73825731      -1.98201598 F F F
 H              0.10979301       9.98442430       5.74385932      -0.08494638      -0.05545835       0.04813879      -1.21202809       0.01541194       0.20515092      -1.84622874 F F F
 H              5.69491831       5.29679126       7.59771734      -0.01345644      -0.00335390      -0.05678438      -0.25738765       2.04351334      -0.58802635      -3.38034879 F F F
 H              7.44753215       0.25166573       5.85145933      -0.01963578       0.06590762       0.02062051      -0.23005658       1.60075717       0.86113104      -2.14786844 F F F
 H              5.60665204       4.31749455       0.87158040      -0.02170453       0.00008335       0.07287486      -1.37347324      -1.37020808      -0.26542995      -3.02525195 F F F
 H              7.08260109       8.57225556       4.04301791      -0.01354745       0.04220858      -0.14476667       0.69690489       2.27184007       0.86301888      -3.07174864 F F F
 H              3.62209477       5.15116499       7.28570533      -0.01831309      -0.00665400      -0.05216547       0.42787562       2.28624237       0.84076046      -2.80488159 F F F
 H              0.78776669       3.36134507       4.36602997       0.08292617       0.00144243       0.00341278       2.34954802       0.08576390      -1.84732235      -2.87049888 F F F
 H              4.40047239       0.89973040       5.99691921       0.04847306      -0.06481789       0.01285513       1.76998592       2.23891937       2.53209507      -2.87669514 F F F
 H              0.81784967       7.91819941       0.83660241      -0.00302020       0.00661035       0.00972051       3.50610334      -0.76457013       2.38681211      -3.12828712 F F F
 H              0.09793611       7.06978375       0.96414979       0.06585473      -0.04953431      -0.13066479      -1.76697064      -1.22357262       0.39813390      -2.11146170 F F F
 H              1.75894891       7.54101554       6.61918676       0.04877548       0.06754400      -0.00137076       1.71999743      -0.49032863       0.51074874      -3.13288140 F F F
 H              4.18262791       4.96280865       5.45127509       0.08990514      -0.02691328       0.02882437      -1.27366257      -0.49029319      -1.44326956      -2.19288614 F F F
 H              6.24790377       6.45238403       5.78040937      -0.01261445      -0.18524423       0.05632401       2.03151298       0.83142284      -1.62946368      -3.87888001 F F F
 H              7.22633936       9.43378350       4.16726793       0.00142487      -0.03497898       0.12767019      -0.01585823      -3.23181798      -0.41573112      -2.77267974 F F F
 H              4.50766823       4.09120009       8.40102432       0.04819155       0.03992082       0.01731767       1.09475526      -1.72315293      -0.21598679      -2.58244103 F F F
 C              5.11475611       1.57420225       6.87938641      -0.02181071       0.01649887       0.01168045       4.17466227      -2.15984402       0.26541597      -6.23443309 F F F
 C              0.51222118       9.80007433       8.29981545       0.00424086       0.00465312       0.02380342      -3.26168257      -2.37820145       2.30298462      -7.86127092 F F F
 C              9.07901783       9.39015068       6.43808243      -0.03564615      -0.00534828       0.01184172       2.38557630       0.25788321      -0.01095155      -4.88532735 F F F
 C              4.75352416       5.94122480       7.19799506      -0.02741971       0.00288694      -0.00704013      -0.61265387      -6.28420228      -4.41790723      -7.79337009 F F F
 C              8.69309940       1.59937980       0.92627781      -0.00237756      -0.00671212      -0.00196054      17.43222559      -5.04063186       0.10361576      -8.17220872 F F F
 C              3.07778155       2.73273292       3.60027652       0.03310488       0.03391920       0.01688634      -0.00476090       1.17147321      -1.29142424      -9.08933421 F F F
 C              7.94016242       9.82283858       6.93629537      -0.00458471      -0.00780126       0.01304843      -1.58864492       1.83627161       0.44953539      -9.12020500 F F F
 C              0.04871449       9.94785745       9.96894417       0.01539201       0.01392338       0.00077938      -0.72993651      -2.45807603      -0.94004440      -7.04509955 F F F
 C              4.93549640       3.22661932       0.92091733       0.01072125       0.02622539      -0.01585535       5.58442158      -1.37968033       6.00272427      -6.23489861 F F F
 C              7.56954108       1.74396551       0.88817433      -0.01053690      -0.02545747      -0.01972162     -18.75363344       4.15096293      -3.65250804      -3.70939402 F F F
 C              2.76310098       4.17692110       5.04592121       0.01236832      -0.00297321      -0.00440673      -1.54007050       0.65300846      -0.10486991      -8.38624401 F F F
 C              7.06154516       1.76364776       9.02618490       0.01878105       0.01539891       0.01195061      -0.62252808      -0.70674642      -0.06740468      -7.39286953 F F F
 C              1.97653472       3.56891095       4.03348085       0.00992965      -0.01406544      -0.00955773      -0.14983258      -1.37409248       2.07950170      -7.17920242 F F F
 C              6.39902667       1.80896702       7.60130577       0.03364489       0.04162543       0.01632250      -3.02266818      -1.79437307      -0.04205982      -8.02629621 F F F
 C              0.27069425       8.54401215       7.56249830      -0.00497538       0.02471521      -0.01396819       0.14749453       2.52169650       0.08962987      -8.58989134 F F F
 C              0.35226294       8.59366099       0.24349772       0.00837230       0.01048586      -0.01128137      -1.88876892       4.94223424      -5.40877818      -6.86743617 F F F
 C              8.14454978       0.78766076       9.03972880      -0.01224641      -0.03521314      -0.00898867       1.48822872      -0.73978266      -1.37934847      -8.52520835 F F F