50
Lattice="9.9905032156 0.0 0.0 0.0 9.9905032156 0.0 0.0 0.0 9.9905032156" Properties=species:S:1:pos:R:3:local_energy:R:1:hirshfeld_v:R:1:forces:R:3 energy_soap=-252.21777908 energy_2b=11.02287924 energy_3b=0.05487708 energy_core_pot=0.0 energy_vdw=0.0 energy_exp=0.0 energy_xps=0.0 virial="-20.23248284 15.09659085 8.42042488 15.09659085 -9.28603842 0.58165389 8.42042488 0.58165389 -13.19385011" volume=997.153669 config_type=iter_10 energy=-241.140023 stress="0.02029024 -0.01513968 -0.00844446 -0.01513968 0.00931255 -0.00058331 -0.00844446 -0.00058331 0.01323151" pbc="T T T"
H        2.78976816       2.31325257       6.83847207      -3.17389276       0.71678571      -0.07559637      -3.68898076       1.54255678
H        9.11885825       2.98841919       4.20808622      -3.31048084       0.75580805      -1.40741745       1.23617183      -1.38474770
H        7.32960908       4.65582251       6.29165492      -3.24950420       0.64668680      -0.02241800      -0.01466718      -1.08291357
H        7.51261095       1.94586001       9.93722485      -2.75156005       0.65708253      -0.45615305       0.82525104      -0.78963173
H        8.39213959       0.55374760       1.54963945      -2.74218494       0.74930968      -2.08012386       0.73256087       2.14630660
H        1.34302054       1.14863442       6.61524022      -3.24801484       0.74538168       0.87942395      -1.88825517       0.82416755
H        3.92671161       3.38444511       4.70478375      -3.05923608       0.56385276      -2.51068180      -0.99721483       0.51980347
H        7.92411931       0.61935068       2.27680784      -3.07434434       0.68739888       0.44065297       0.22398858      -1.32801062
H        4.98221067       7.63246070       5.43181780      -2.65031289       0.83056802       0.80214946       0.93276036      -5.19229306
H        7.77681074       7.96809617       1.06785816      -3.02552080       0.72543324      -6.10039654      -0.03537421      -3.57458760
H        1.80250695       0.88898806       9.60965948      -3.67846731       0.75281695      -1.50442403       6.82855845      -2.05269462
H        0.71803677       9.28652991       9.15369741      -3.33541829       0.69154532      -0.16674011      -0.89493353       1.86765679
H        7.10576159       2.11557370       4.12620439      -2.93336900       0.65965998       1.05776828       0.03523505       2.36632560
H        7.36857589       2.72707339       9.93030100      -3.56960953       0.69873625       0.16007347      -0.62037594       0.11850606
H        4.53200462       3.64307292       4.57843429      -3.06941272       0.56352804       2.37749326       1.18603603      -0.56344886
H        9.17997285       9.14059135       6.75993137      -2.48964694       0.86636388       0.67152102       0.76249357      -4.39140376
H        1.34012445       3.74104423       7.12090521      -2.50099056       0.78082437       0.85157787       0.07611612       0.54212451
H        9.36899206       9.35031059       5.66836203      -2.47569213       0.87607833      -0.74059828      -0.81925367       4.35554398
H        7.54351747       2.19059514       4.91016323      -2.84831294       0.70284860      -1.92913545      -1.35614817      -2.24387005
H        1.10577552       2.85422818       7.56471287      -2.95477297       0.80540117      -0.27737066      -0.30076748       0.20449313
H        7.36434775       4.51451087       5.50437156      -3.06378251       0.67733407       0.28794026       0.63301254       0.97359355
H        6.07811467       7.30287833       3.40145801      -3.42223140       0.65389287       0.46912894      -0.12499779      -0.51301936
H        5.60309629       6.88241509       3.78258219      -2.92918529       0.62202815       0.20856198      -0.36105662      -0.62342172
H        0.82338457       5.65502300       6.82830880      -2.92526427       0.70414410       2.33241705      -1.05654769       0.40761409
H        6.08397465       9.35799163       7.01979511      -4.48982314       0.66849024       0.88736302       1.12544079       0.08903989
C        3.56947707       9.48636677       9.80812709      -6.76643215       0.90043407       0.85445823      -0.46466288      -0.77327092
C        2.28250961       1.00533563       7.27637268      -5.46423581       0.86832296       4.13015510       1.07426654      -1.99871052
C        5.25573483       8.78109937       7.33806982      -6.55034068       0.85422843      -7.10043723      -1.48642431       0.85737829
C        8.23035017       6.49039829       2.55617609      -6.93673568       0.88855229       4.28643685       1.24277373      -3.44582403
C        8.88874094       9.00510349       1.53505009      -6.71522961       0.84702403       3.44823556      -1.90974466       1.41983348
C        5.36828149       5.42129924       8.28467370      -6.66775469       0.85422825      -3.01777034       2.46611899      -7.33647430
C        7.89209688       4.28473986       0.91461139      -5.41590548       0.92037403       1.12558379       0.92207585       3.43784760
C        6.47420011       4.88679820       0.96539645      -5.98832168       0.89163378      -4.81646214      -4.30454328       3.03830695
C        8.37386693       7.70881350       1.78247129      -7.25100207       0.83997083       2.78260289       1.43746039       4.90825792
C        0.02854404       9.55047940       1.22548261      -7.10124078       0.85201108       3.31507164      -0.95515654      -1.80866331
C        8.28280363       3.53534199       3.48633995      -5.60020930       0.89771401       4.52886380       0.30958308      -1.26992286
C        5.08962883       7.06764984       6.26100419      -6.65106109       0.86327821      -3.04793570      -1.52932005       7.06789087
C        7.23407100       5.96233278       0.70912886      -6.24339358       0.90741544       5.16477689       0.34892226      -2.78088295
C        9.33367587       5.62218921       2.55990167      -6.33488847       0.94460660      -4.50959318      -1.60357072      -0.06622324
C        3.34670857       5.05541249       7.04934899      -6.90241457       0.86082816       0.88335174       2.98698042      -0.69395271
C        8.96880645       4.16029894       2.28799138      -7.93642231       0.92915189      -3.11228140       2.25670407       1.01319682
C        3.50108896       9.74928479       7.49024317      -6.78937301       0.87686543      -3.55567569       2.91088087      -4.41972702
C        1.23737363       9.44367512       0.45662199      -7.07128672       0.86032880      -5.73988111      -2.20790579      -0.30629077
C        4.67712992       5.84810034       7.08098964      -8.84732697       0.86323302      -2.64438939      -2.71435587       0.15213389
C        4.15006648       8.22652765       6.26146336      -5.80574271       0.93487088       2.48079880       0.60156030       3.43377572
C        2.26139602       0.10214765       9.90641228      -7.11535939       0.84139861       5.41521841      -3.90337553       2.98379969
C        6.20647712       5.40128331       9.11294936      -6.13667912       0.87279391       2.30871500       1.07876028       6.09546489
C        4.10958889       9.23264104       8.53889140      -6.81816052       0.88348272       1.54757781       0.98129987       0.65382948
C        2.12342713       4.68514229       7.10632760      -6.48041698       0.83490855      -0.14459445       1.48214897      -1.05326812
C        5.13526721       5.45691551       0.91779818      -4.57905867       0.98280981       1.26215819      -1.45952819      -1.32619420
50
Lattice="9.9905032156 0.0 0.0 0.0 9.9905032156 0.0 0.0 0.0 9.9905032156" Properties=species:S:1:pos:R:3:local_energy:R:1:hirshfeld_v:R:1:forces:R:3 energy_soap=-252.17484095 energy_2b=9.32819371 energy_3b=1.60293679 energy_core_pot=0.0 energy_vdw=0.0 energy_exp=0.0 energy_xps=0.0 virial="-27.73847424 10.64042504 3.43125734 10.64042504 -6.64683912 8.58140831 3.43125734 8.58140831 -1.45951351" volume=997.153669 config_type=iter_10 energy=-241.24371 stress="0.02781765 -0.0106708 -0.00344105 -0.0106708 0.00666581 -0.0086059 -0.00344105 -0.0086059 0.00146368" pbc="T T T"
H        2.81792407       1.90416741       6.50622968      -3.35868466       0.70742623       2.09779487       1.34915650      -2.76832729
H        9.62976361       2.81836239       4.82896412      -2.87159991       0.75469621       1.93985566       0.32127216       1.16431257
H        7.20452698       4.19534048       4.49215131      -3.20613107       0.70432941      -1.23627791       1.50587473       0.78022216
H        7.77062038       1.85025768       9.77940950      -2.74290554       0.79259668      -3.58593496       2.49199362      -2.15341536
H        6.45281551       1.04748837       3.67604462      -2.62334861       0.70623476       0.69315959      -0.34599656      -2.72820027
H        1.54610687       0.53037132       7.32900195      -2.65458169       0.74393194       1.76416511       0.49389252      -0.27694829
H        2.98090544       4.27530207       3.93968903      -3.18755478       0.66635956      -1.56341459      -0.62484621       2.34013473
H        6.84650630       0.86543057       2.82208957      -2.54859102       0.77777361      -1.09140373       0.92090179       2.99531515
H        3.72568814       9.01873400       5.87635627      -3.93678938       0.71163322       0.99861328      -1.35139395      -1.70926623
H        7.37236503       8.86801830       1.90740432      -4.03364742       0.74798530      -0.84577953       1.61973218      -0.90188183
H        2.45471142       1.20930439       9.27479281      -4.07123520       0.70521802      -0.83601365      -1.92489269       1.83861573
H        0.62177641       9.22484829       9.24763834      -3.40406302       0.74373837       0.12711385      -0.53884766      -3.20128804
H        8.09053758       2.41527393       4.70406254      -2.75060925       0.74820915       0.36871439       0.99788255      -2.65099182
H        7.02132370       2.36086247       9.32012669      -2.81826192       0.79920626       3.61402617      -2.45378654       2.28753672
H        2.49686407       4.08856841       4.63924182      -2.81363656       0.69610098       2.00876973       1.03540756      -2.42668866
H        8.42316600       0.56792800       3.43160955      -1.71765617       0.84914900       1.68535020       0.14880099       0.23362785
H        1.91989676       3.59244992       7.38862441      -3.17592583       0.79061130      -0.69155222       0.46428883       0.85896667
H        9.93071446       0.88970355       4.11147550      -1.54631267       0.87110271      -1.34564905      -0.29046383      -0.63998935
H        0.15940466       2.81566767       5.50433463      -2.74468796       0.66897242      -0.96791314      -0.18722931      -1.03895230
H        1.35471906       1.67680984       7.10586166      -2.74981016       0.71192803      -0.25582898       0.70992747       1.30722059
H        6.79380659       4.83426949       4.74385018      -3.25892434       0.67568858       0.67048379      -1.16329767      -0.44529626
H        5.93149343       8.05545066       3.61724428      -3.54091303       0.62242401      -0.79793288      -0.38504572       3.70498426
H        6.00858441       8.11468608       2.96271000      -2.76128955       0.62623020      -0.16172154      -0.33492609      -2.72393706
H        1.21017193       3.55089327       6.49036699      -2.59837123       0.73659745       0.26171597       0.46375854       0.68694283
H        6.35799879       9.06674032       7.50486804      -4.03445109       0.71997751      -4.24439272      -1.05839851      -0.88038952
C        3.74131347       9.50556183       9.79636778      -6.58025370       0.93293920      -1.09693084      -1.24482036      -1.29858436
C        2.46079044       1.48738910       7.35347874      -6.80626010       0.81446125      -0.64777305      -6.62422366       2.01744707
C        5.10542992       8.73502698       7.35925676      -6.60923335       0.88338019       2.42928799      -0.53219432       0.99848199
C        7.87305092       6.53908757       2.07011320      -7.25982365       0.84682002       6.29807914       9.96530750       7.74430897
C        9.43372727       8.43284633       1.55729565      -6.68703907       0.87798594      -3.08264421       0.53449493      -0.71745252
C        5.81326772       5.54647558       8.05045373      -6.82971546       0.88309007      -2.26249888      -0.99651513       1.79564322
C        7.75699629       4.47643744       1.28776450      -6.11909386       0.92422561       0.96223117      -1.65720542      -0.45480378
C        6.08950850       5.35624429       0.61541594      -7.76019046       0.86863613      -2.75430233      -1.28338412       5.38643708
C        7.99721244       8.06057552       1.74482708      -7.60913543       0.84031892       5.94809732      -4.27511491       1.61438586
C        0.01768271       9.36113702       0.80501236      -6.93943159       0.86480386      -0.28448498      -1.05297096       3.10675111
C        8.62795193       3.08994461       3.45062116      -6.20061769       0.85272489      -1.07909314      -3.19531018       3.37742416
C        4.99880139       6.98737771       6.33254865      -6.92076303       0.88108796      -2.67331504       1.92200268       1.08341893
C        7.44544182       5.80357090       1.21076488      -6.66101545       0.85196339      -5.31170379      -7.98888600      -7.88522799
C        9.10765105       5.42037622       2.65495609      -6.23388178       0.89922249      -0.08468985       9.96465679      -1.59067383
C        3.45178882       4.84839756       6.70089433      -6.11249109       0.92655617      -0.81812445       3.31490397       4.82080734
C        8.87668786       4.23876525       2.87490011      -6.43774215       0.85500264      -2.10358426      -5.69244399       0.01380782
C        3.48739962       0.22350197       7.65264469      -5.91546903       0.86963966      -1.61309156       1.80885628      -1.73637160
C        1.23426117       9.46827650       0.10633703      -7.40606007       0.83357331      -3.20770036      -0.58450535       0.92149034
C        4.58433110       5.83299410       7.22690529      -8.84502858       0.89898512       1.14887861      -0.56830680      -2.99089787
C        4.64398375       8.19981881       5.71172340      -6.02823517       0.88580751       0.32220162      -0.11380120       5.04607223
C        2.34249464       0.09960509       9.87083375      -7.32310498       0.83975876       5.35649244       2.82171822      -0.57824858
C        5.97587403       5.26343846       9.35162295      -7.60879618       0.84368176       0.15228839       1.50619550      -8.14202996
C        4.09692797       9.24577729       8.45709832      -7.18763751       0.89476893       0.35245752       2.76136285      -1.72206382
C        2.30100932       4.76588241       7.62114819      -4.46512998       0.97947832       3.70426172      -1.40563350      -4.42515449
C        4.72601754       4.77349650       1.35802499      -3.54757900       1.01954599       1.73971311       0.75205248      -0.03727426
50
Lattice="9.9905032156 0.0 0.0 0.0 9.9905032156 0.0 0.0 0.0 9.9905032156" Properties=species:S:1:pos:R:3:local_energy:R:1:hirshfeld_v:R:1:forces:R:3 energy_soap=-246.63018663 energy_2b=6.40388514 energy_3b=1.34112384 energy_core_pot=0.0 energy_vdw=0.0 energy_exp=0.0 energy_xps=0.0 virial="-22.9398037 3.98086133 -0.27934448 3.98086133 -29.3497696 -6.32665514 -0.27934448 -6.32665514 -29.73852988" volume=997.153669 config_type=iter_10 energy=-238.885178 stress="0.02300528 -0.00399222 0.00028014 -0.00399222 0.02943355 0.00634471 0.00028014 0.00634471 0.02982342" pbc="T T T"
H        3.31507726       2.49787693       7.30865061      -3.16638352       0.73625798      -2.18131819      -1.55396574      -0.07620815
H        0.70497497       2.44243107       4.62636514      -3.17850015       0.71743640       1.96064777       0.51017129       1.35223900
H        5.92747104       4.61049654       3.19213770      -3.28636063       0.69052678      -0.30682564      -0.44831128       2.30582102
H        7.81253692       1.76793024       9.72400434      -2.48475006       0.85543282      -2.68405150      -0.03949534      -3.81154711
H        4.99952053       1.36974409       4.32926731      -2.80762529       0.56263550       1.74440664      -0.49581713      -0.26937363
H        1.34579186       1.70087647       7.64006257      -3.07821948       0.80052682       1.70950987      -1.60029243      -0.31045410
H        1.57954154       5.08380634       4.87245222      -2.96614194       0.68947143      -0.27587120       0.91130057      -2.24750740
H        4.38719113       1.70006394       4.40932043      -3.20838839       0.55847932      -1.94534443       1.12740963       0.25165884
H        5.56562502       9.15503127       5.22264461      -3.34669012       0.76582570      -1.52526330      -2.65386110       1.55068273
H        7.91819936       9.55384109       2.09789841      -3.97511551       0.67715031      -0.07061458      -2.57491797      -0.62517227
H        2.39024291       1.01199794       1.00867077      -3.99382846       0.71194253       0.63913847      -2.73540867      -3.47567529
H        1.56888193       9.22782390       8.50031264      -4.08115377       0.71858245      -2.46024364      -0.05119450       1.94970925
H        8.85943969       1.99089932       4.06020868      -2.96127054       0.70596915      -3.71014133      -4.82214702       6.16697903
H        7.16884364       1.74647569       8.81412203      -2.53514952       0.87301758       2.87492431       0.07050150       3.67246531
H        1.43010504       5.26290623       4.05231543      -3.08088537       0.65404472       0.26309892      -0.44644673       2.27952008
H        9.08022928       2.02852813       2.47650324      -3.66798883       0.72054344       1.16286949       1.58805499       1.42636469
H        2.42823233       5.22210567       8.43338920      -3.74304619       0.72956272      -1.98123256      -0.72724974       1.42194790
H        9.59084926       3.22690482       0.66613748      -1.54130748       0.81838594      -0.90531033       0.58231170       1.22989481
H        1.43739279       2.56768678       5.24049251      -2.53677174       0.79625020      -1.87964620      -0.80326832      -1.68447538
H        9.84709481       1.20868982       7.27811786      -1.62252269       0.87511373       0.71830487       0.30956022       0.40580301
H        6.13096349       4.54502231       4.08121816      -2.89647770       0.73192914      -0.51404607       0.04510476      -2.87409426
H        4.90092190       8.36127536       3.69221136      -2.70060760       0.82133781       1.63737200      -0.29044137      -0.17848046
H        5.88861196       8.84145963       3.26719782      -2.45624642       0.80594090      -1.78879237      -1.21935820       0.14301551
H        1.90715051       3.02277374       6.55550896      -2.68522700       0.77102231       0.19583415       0.75805841       0.69196057
H        6.11435855       8.68816593       7.29704445      -4.27490502       0.71663516      -0.83085129      -0.27120537       1.43821119
C        3.68935146       9.41941258       9.50695822      -6.37578138       0.92454308      -2.97753023       3.20099642       1.21488346
C        2.49670179       1.40888184       7.21613613      -6.06492526       0.89029403       3.98993431       2.65493206       1.82423679
C        5.04620697       8.44770826       7.74970651      -6.75707938       0.87518569       1.96166942      -1.65972645      -4.26504204
C        7.79091926       7.14832634       2.06043434      -6.21615139       0.87090480      -1.47534947      -8.17513118       0.96603115
C        9.40012872       8.20143520       1.40118378      -7.22803156       0.86147589       2.31448746       2.24394572      -2.38208393
C        5.88091868       5.49812063       7.81390701      -6.86372969       0.92125290      -1.82420183      -1.97110699       6.20733802
C        7.79692002       4.02216204       1.97737341      -5.36619425       0.90965278      -2.96665821       3.67187484      -5.31482005
C        5.61845406       5.50901906       0.66874089      -7.07710336       0.90877005      -2.26958100      -1.33301547      -2.01331621
C        8.13548645       8.35036778       1.89495640      -6.90355714       0.83477856       0.53332147       5.69645246       1.08569674
C        0.26039181       8.93490969       0.68179516      -7.19804250       0.86937672       0.87762487      -0.73137489      -2.62311294
C        9.12212112       2.70857165       3.51620919      -6.46401534       0.84538386       1.01692897       7.53235931      -8.08199245
C        4.78532869       7.05235672       6.50672809      -7.75382020       0.85345592      -0.24471846      13.38304401      -4.89983636
C        6.86690901       5.50826620       1.25050582      -6.84910614       0.89490004       6.24581954      -0.70992587       4.35607743
C        8.81602716       5.43977861       2.71863585      -5.48715747       0.93159476      -1.23745431       3.72302223      -1.53022575
C        3.61840049       5.12200774       7.08559730      -7.59922736       0.84250206      -0.37694914      -1.27270426      -0.32725227
C        8.42854099       4.18707175       3.13464580      -6.38440491       0.87473563       3.85859782      -6.18754165       3.66745332
C        3.83385840       0.75901495       7.82531360      -6.82765525       0.87115870      -5.23010424       3.89682490      -3.75088969
C        1.06627289       9.46786517       9.60735384      -7.17803120       0.87675019       2.75173280      -0.28828140       1.79778248
C        4.78607048       5.85879748       6.99743209      -7.04921491       0.87148130       1.86457328      -3.57989020       1.10336104
C        4.87276170       8.10046555       5.24457699      -5.24701034       0.90854104       1.21225476      -1.34639025       3.28479430
C        2.58358863       0.21025973       0.01289670      -6.65260487       0.88197413      -0.39364023      -2.03627051       2.23875850
C        5.48823061       5.15271809       9.32295594      -6.61414378       0.88557356       1.65715074       2.34528737      -6.77776817
C        4.25565244       9.57227135       8.12269929      -6.85647509       0.87569922       0.26029957      -4.51884004       3.05811426
C        2.62465935       4.49757373       7.61247703      -5.59282248       0.83697555       0.51613733       0.02672331      -2.00063814
C        5.16311728       4.42795155       1.49087964      -4.00332899       0.98265579       0.08910095       0.26564437       2.42916562
50
Lattice="9.9905032156 0.0 0.0 0.0 9.9905032156 0.0 0.0 0.0 9.9905032156" Properties=species:S:1:pos:R:3:local_energy:R:1:hirshfeld_v:R:1:forces:R:3 energy_soap=-256.61553932 energy_2b=11.34661657 energy_3b=0.12188967 energy_core_pot=0.0 energy_vdw=0.0 energy_exp=0.0 energy_xps=0.0 virial="-14.83163765 -2.61015068 8.75058322 -2.61015068 -25.11364304 13.54866302 8.75058322 13.54866302 -2.96797409" volume=997.153669 config_type=iter_10 energy=-245.147033 stress="0.01487397 0.0026176 -0.00877556 0.0026176 0.02518533 -0.01358734 -0.00877556 -0.01358734 0.00297645" pbc="T T T"
H        1.91429263       2.21696363       8.45873613      -2.85935276       0.77085397       0.43540861      -1.35204479      -1.72560022
H        1.57036305       1.94895069       4.26063556      -2.40375527       0.65741063       0.13417270       0.28778239      -0.25220937
H        3.79717491       4.69448183       3.96977360      -3.00816101       0.66393464       1.26221889      -2.00765665      -0.66738891
H        8.06998977       1.86559667       9.18303195      -3.20427394       0.50881725      -3.31791255       5.17746078       1.60872643
H        2.87966507       2.70592508       5.24149689      -2.83980440       0.78972580      -0.41153860       0.73369478      -0.58294240
H        2.15471378       0.94250789       6.96597108      -2.95257996       0.71584983      -2.55939975      -3.22345391      -0.52962257
H        0.15299937       6.45033899       4.27841444      -3.50563846       0.59758313      -1.46545341      -0.35564923      -0.74872788
H        2.88361316       2.13532007       6.02213005      -2.16763648       0.78828923       2.03870682       0.28329725       0.22966945
H        6.10208632       8.53014620       4.65255002      -3.62300715       0.74159470      -2.31965789      -1.63225529       2.50878156
H        7.98851238       9.19851850       2.42771510      -4.03438439       0.68828840       1.56385481      -1.65357564      -0.63179260
H        2.67476678       9.72803686       1.20460835      -4.30979478       0.66473769       0.33974622       0.13158301      -0.60935355
H        0.29209326       0.31770556       9.64187131      -3.86360152       0.75528013       2.20526768      -1.89486113       0.30133172
H        8.83095891       1.68967351       3.61391447      -3.33254946       0.67628475       0.25325031       2.98724144       0.23079436
H        8.37360502       1.35130256       9.01214597      -2.36417430       0.53907783       2.51612386      -4.88218775      -1.65320512
H        0.74696196       6.56237350       4.60850404      -2.88781244       0.54291171       1.45485664       0.26650124       0.96068056
H        0.14053335       2.77989793       2.83825010      -3.39168614       0.68371300       3.22623487      -0.31690815      -2.21424597
H        2.08959414       3.95160271       7.60848840      -3.71155420       0.82981679      -2.62923809      -1.16286274       0.40034271
H        8.97512306       5.69119890       7.24982943      -0.22107522       0.93909291       0.05927837       0.03879095      -0.16198518
H        0.99496744       1.50581689       4.06888007      -3.26443253       0.63337237      -0.37106051      -0.60302166       0.03977214
H        0.88307753       1.33126102       8.40725034      -2.33477374       0.75395815       0.98547802       1.04960520      -0.11323880
H        4.18879645       3.97095983       3.77977458      -3.05906224       0.68327184      -0.92612781       2.33544775      -0.10254031
H        5.77163636       8.28397340       2.74372403      -2.82397774       0.78787401      -4.08829355      -2.25493651      -0.19877461
H        4.88817762       7.82015600       2.76454387      -2.76750188       0.75213948       3.70385599       1.87496760      -0.01491885
H        1.82290938       2.91344077       6.11141372      -2.18445262       0.79338248      -0.52690121       0.26877007       0.00590130
H        5.74795659       7.68006588       8.52329948      -4.43827603       0.73552214      -1.44153703       0.93904839      -2.27512067
C        3.36534037       9.78531741       8.94924029      -7.14465477       0.83676803      -1.41315778       0.90584329       2.17164874
C        2.70762083       1.74864589       7.19485092      -6.69160316       0.82141270       2.19052469      -0.11630216       3.71760003
C        5.04235157       8.22138887       7.67841537      -7.62867670       0.83906139       1.26358177       2.32992694       5.81925526
C        7.56413994       6.92126207       2.04205435      -5.63167306       0.90135406       2.26431520      -0.88690916       1.32958586
C        9.42907424       8.51499678       1.03781929      -6.98581313       0.85475483       6.28889329      -2.44175934      -2.77183978
C        5.55308085       5.38701880       7.90211267      -7.16485753       0.88038983      -3.80190722       0.86298903      -0.03278273
C        7.27646306       4.11222921       2.12216430      -6.69295945       0.88569986       2.18109019      -1.53901569       2.73989583
C        5.72933039       5.22149974       0.50905169      -7.29368366       0.85318814      -2.96454428      -1.93293061      -0.85343049
C        8.58924751       8.26144298       1.96521811      -7.01020043       0.85855821      -6.29226580      -1.23307988       2.02709356
C        0.68216188       8.24210603       0.36904031      -6.85126745       0.92698856      -4.46809365       3.69819645       0.17016890
C        9.36872214       3.03561690       3.45253678      -6.89125952       0.81802449      -1.91928985      -4.86048992       1.02928223
C        4.59994663       7.87638048       6.50438143      -6.54877236       0.86949662       1.76833437      -4.38854151      -3.68322003
C        6.60929774       5.31749297       1.68041836      -7.19104160       0.87644601       1.14516976       4.07900946       1.72938156
C        8.20951114       5.41607724       2.85260338      -6.23105953       0.90308248      -0.10879077       0.21155615      -0.62660744
C        3.91295211       5.35069492       7.51329756      -7.10797045       0.87589100      -0.66279974      -2.42402912      -0.95560585
C        8.54878480       4.02377686       3.27706046      -6.90509645       0.86001951      -4.28111952       4.29788579      -1.81067060
C        3.91997821       1.07673850       7.70131610      -5.33913803       0.93187121      -1.04636487      -1.59030170       1.16319550
C        1.16862179       9.51827138       9.65582996      -7.17158129       0.85556170      -2.40584512      -1.46262764       2.73497548
C        5.00322661       6.04119329       6.64223450      -7.56779512       0.90089138      -2.75487445      -0.55730563       3.33231875
C        5.21892345       7.85714178       5.30421131      -6.08293277       0.87734963       1.76629618       2.22214597      -1.61523844
C        2.47418184       9.61639413       0.12633769      -7.41880192       0.82619525       1.48223467       1.41999055      -3.34739000
C        5.29262249       5.37539564       9.32100454      -7.05131351       0.84711377       1.23355793       0.00862301      -3.29563325
C        4.41249952       9.37749834       8.30395819      -7.02810040       0.85251382       0.68259919       1.79946888      -1.14698920
C        2.86959616       4.55673657       7.79147979      -6.41507241       0.85752529       7.26068070       5.13018772      -1.97146202