50
Lattice="9.9905032156 0.0 0.0 0.0 9.9905032156 0.0 0.0 0.0 9.9905032156" Properties=species:S:1:pos:R:3:velocities:R:3:local_energy:R:1:fix_atoms:S:3:forces:R:3 temperature=5803.39306288 pressure=10411.56526907 time_step=0.5 time=0.0 energy_soap=-352.08477736 energy_2b=102.75439803 energy_3b=1.15949547 energy_core_pot=0.0 energy_vdw=0.0 energy_exp=0.0 energy_xps=0.0 virial="-22.62942199 4.43254453 3.30100116 4.43254453 -11.21433779 5.25922834 3.30100116 5.25922834 -20.23090568" volume=997.153669 step=0 config_type=iter_10 energy=-248.170884 stress="0.02269402 -0.0044452 -0.00331042 -0.0044452 0.01124635 -0.00527424 -0.00331042 -0.00527424 0.02028865" pbc="T T T"
H        2.78976816       2.31325257       6.83847207      -0.00717870       0.03572975      -0.04545719      -2.52952461 F F F       0.48428680      -3.08736844       0.79949186
H        9.11885825       2.98841919       4.20808622       0.05220607      -0.02568065       0.04436799      -2.92190244 F F F      -0.88682814       1.76023367      -1.76713570
H        7.32960908       4.65582251       6.29165492      -0.06107149       0.09596700      -0.09281712      -2.97864702 F F F      -0.18768570      -0.18337595      -1.07562157
H        7.51261095       1.94586001       9.93722485       0.04686606      -0.10063340       0.01023025      -2.94991471 F F F      -0.29236045       0.48007469      -0.32872355
H        8.39213959       0.55374760       1.54963945      -0.08502624       0.05220441       0.01986037      -2.02933015 F F F      -1.87024836       0.32094721       1.73172459
H        1.34302054       1.14863442       6.61524022      -0.05045443      -0.02208878      -0.02349428      -3.35220475 F F F       1.03956150      -1.97369141       0.84240983
H        3.92671161       3.38444511       4.70478375      -0.10546268       0.03249916      -0.07797647      -2.92978077 F F F      -2.08894942      -0.72151591       0.52742144
H        7.92411931       0.61935068       2.27680784      -0.03532529      -0.04467569       0.10518644      -2.85714490 F F F       0.11768768       0.73617029      -0.98351175
H        4.98221067       7.63246070       5.43181780      -0.09618960       0.00338588      -0.08415732      -1.11877209 F F F       0.58401311       0.92729800      -5.65483182
H        7.77681074       7.96809617       1.06785816       0.01444324       0.02216984       0.07740073      -1.09269031 F F F      -4.34781846       1.05221450      -3.78116653
H        1.80250695       0.88898806       9.60965948      -0.00051568       0.07418886       0.01816120      -1.87262313 F F F      -0.54487606       6.11558159      -2.94946023
H        0.71803677       9.28652991       9.15369741      -0.04919540       0.01928693      -0.03988076      -1.70072352 F F F      -0.06962164      -0.66684216       0.97466556
H        7.10576159       2.11557370       4.12620439      -0.05051786      -0.07023448       0.00823987      -2.78619339 F F F       0.58809517      -0.01195403       2.04386622
H        7.36857589       2.72707339       9.93030100      -0.05115170       0.10146004      -0.03982260      -2.86304772 F F F       0.24302079      -1.17446085      -0.11378386
H        4.53200462       3.64307292       4.57843429      -0.04259288       0.03527078       0.00365662      -2.95229848 F F F       2.12728817       0.78870284      -0.36483279
H        9.17997285       9.14059135       6.75993137       0.10370490       0.11602535      -0.21247443      -2.37413039 F F F       0.89458290       0.96459431      -4.59413988
H        1.34012445       3.74104423       7.12090521       0.10336864       0.02895792      -0.03614632      -3.10172659 F F F       0.23736477       0.42918249       0.43489465
H        9.36899206       9.35031059       5.66836203      -0.12519792       0.02620679      -0.05400598      -2.33442711 F F F      -0.76212795      -0.87733769       4.79401546
H        7.54351747       2.19059514       4.91016323       0.21258374       0.06478609       0.10109268      -2.57836737 F F F      -1.88654026      -0.65633019      -1.80183122
H        1.10577552       2.85422818       7.56471287      -0.03339952      -0.03870229      -0.02830298      -2.41049794 F F F      -0.81903595       0.05138535       0.45893057
H        7.36434775       4.51451087       5.50437156       0.02102623      -0.07256893      -0.01422521      -2.96823108 F F F       0.04249794      -0.06351304       0.71060329
H        6.07811467       7.30287833       3.40145801      -0.03018138       0.04893491       0.07574736      -3.16844944 F F F       0.63436399       0.18078943      -0.59052934
H        5.60309629       6.88241509       3.78258219       0.00886003       0.06174850      -0.07185169      -2.59056223 F F F      -0.18072536      -0.40931812       0.08931101
H        0.82338457       5.65502300       6.82830880      -0.09741265      -0.08374122      -0.06152842      -2.10230431 F F F       2.23111636      -1.44184086       0.43076151
H        6.08397465       9.35799163       7.01979511      -0.07318210      -0.05889067       0.06488458      -3.16854613 F F F       0.85381336       0.71386473      -0.17697249
C        3.56947707       9.48636677       9.80812709      -0.00279796       0.00972421       0.00943494      -7.98649483 F F F      -1.15973163       0.79424053      -1.23817612
C        2.28250961       1.00533563       7.27637268       0.00616239       0.03768483       0.00639879      -5.78853661 F F F       1.66423904       1.02812307      -0.69016134
C        5.25573483       8.78109937       7.33806982       0.00246404      -0.00524082      -0.02903851      -7.65985148 F F F      -5.66598311      -1.48659590      -0.00829821
C        8.23035017       6.49039829       2.55617609       0.00302332      -0.00559071      -0.01275004      -7.04870825 F F F       1.90818226       1.64676211      -3.11947094
C        8.88874094       9.00510349       1.53505009       0.01304116      -0.04266003      -0.00041368      -7.69995487 F F F       2.18882810      -2.01813952       1.56527818
C        5.36828149       5.42129924       8.28467370       0.00473290       0.01356562      -0.04237567      -7.18985251 F F F      -6.90227883       1.57023917      -8.74350676
C        7.89209688       4.28473986       0.91461139      -0.00695843      -0.00064376      -0.00157243      -8.41450917 F F F       1.02273597       1.09906327       3.23856000
C        6.47420011       4.88679820       0.96539645      -0.04071016       0.02103826      -0.00190891      -3.21614553 F F F      -1.77934851       1.83325908      -0.76811652
C        8.37386693       7.70881350       1.78247129       0.00247814       0.01136014      -0.00915024      -8.83449611 F F F       2.49040417       0.10365571       3.89103043
C        0.02854404       9.55047940       1.22548261      -0.00804567      -0.00768486      -0.02371119      -8.30538525 F F F       2.25873071      -1.77964062      -1.20631417
C        8.28280363       3.53534199       3.48633995      -0.00057722      -0.03345718       0.00747954      -7.00091701 F F F       4.22265590       0.18009385      -0.62640358
C        5.08962883       7.06764984       6.26100419      -0.00463818      -0.02853928       0.01566893      -7.47727255 F F F      -2.12469751      -4.33952868       6.85157723
C        7.23407100       5.96233278       0.70912886       0.00674000       0.01364865       0.01710485      -7.96990971 F F F       0.97408378      -1.80112746       0.66800160
C        9.33367587       5.62218921       2.55990167      -0.03084109       0.04234767      -0.00098781      -7.38482666 F F F      -2.43186380      -2.19670884      -0.25307381
C        3.34670857       5.05541249       7.04934899       0.03510526       0.00379020      -0.01026156      -7.96023158 F F F       1.20450821       1.98011151      -0.33628748
C        8.96880645       4.16029894       2.28799138       0.02613828      -0.01097648       0.02823160      -6.93826434 F F F      -4.35175554       2.05319482       0.09453672
C        3.50108896       9.74928479       7.49024317       0.00793659       0.01007901       0.01731971      -8.35027299 F F F      -2.69521591       2.50527355      -2.45069671
C        1.23737363       9.44367512       0.45662199       0.02573228       0.00481869      -0.01465557      -8.48358454 F F F      -3.71879164      -1.23054387       0.10628883
C        4.67712992       5.84810034       7.08098964      -0.03408879      -0.01475977      -0.00016015      -7.84161267 F F F      -0.90781124      -0.09114371      -0.50829808
C        4.15006648       8.22652765       6.26146336       0.03076753       0.02541999      -0.00274739      -6.61428272 F F F       2.55367627       1.57065914       3.15683302
C        2.26139602       0.10214765       9.90641228      -0.00345998      -0.02292362      -0.00297372      -8.28200659 F F F       4.15091145      -4.70679015       2.30616957
C        6.20647712       5.40128331       9.11294936       0.00117916      -0.00704625       0.02587785      -8.55932898 F F F       6.37938763      -0.60991261       8.96325633
C        4.10958889       9.23264104       8.53889140      -0.00793815      -0.01190768      -0.00238480      -5.81948789 F F F       1.84080076       0.43587118       0.93636694
C        2.12342713       4.68514229       7.10632760       0.02582305       0.00748868       0.03411241      -6.78054345 F F F      -0.54234630       2.19730514      -0.86568114
C        5.13526721       5.45691551       0.91779818      -0.01502314      -0.03489955       0.02317545      -6.83236698 F F F       3.27980496      -1.99121121      -0.61896928
50
Lattice="9.9905032156 0.0 0.0 0.0 9.9905032156 0.0 0.0 0.0 9.9905032156" Properties=species:S:1:pos:R:3:velocities:R:3:local_energy:R:1:fix_atoms:S:3:forces:R:3 temperature=5026.31836854 pressure=18683.75706533 time_step=0.5 time=20.0 energy_soap=-344.72341373 energy_2b=94.92969525 energy_3b=2.30787213 energy_core_pot=0.0 energy_vdw=0.0 energy_exp=0.0 energy_xps=0.0 virial="-27.27625796 0.19869493 5.95249116 0.19869493 0.34709486 12.83697345 5.95249116 12.83697345 -1.85672715" volume=997.153669 step=40 config_type=iter_10 energy=-247.485846 stress="0.02735412 -0.00019926 -0.00596948 -0.00019926 -0.00034809 -0.01287362 -0.00596948 -0.01287362 0.00186203" pbc="T T T"
H        2.81792407       1.90416741       6.50622968      -0.06881022       0.01790785       0.04808620      -3.14187788 F F F       2.56488282       1.84435988      -3.31506496
H        9.62976361       2.81836239       4.82896412       0.03246446      -0.00730390       0.06332747      -2.36569370 F F F       1.11443878       0.35629915      -0.15930181
H        7.20452698       4.19534048       4.49215131       0.04255103      -0.05222939       0.01756942      -2.72147808 F F F      -0.81464597       1.14656602       0.40421821
H        7.77062038       1.85025768       9.77940950       0.05988022      -0.04644167       0.02107579      -2.56333193 F F F      -3.36599920       2.25011944      -2.04511835
H        6.45281551       1.04748837       3.67604462      -0.05513080      -0.01436861       0.05812721      -2.79172321 F F F       0.69403079      -0.16786729      -2.75858261
H        1.54610687       0.53037132       7.32900195      -0.01315777      -0.00211532       0.02657394      -2.32821931 F F F       0.52162537       0.17941003       0.05304777
H        2.98090544       4.27530207       3.93968903      -0.02750744       0.03365364       0.00904079      -2.87542778 F F F      -1.53464857      -0.60519532       2.14649018
H        6.84650630       0.86543057       2.82208957      -0.13550977       0.04123916       0.04017353      -2.56150565 F F F      -0.75742360       0.13259680       3.03114460
H        3.72568814       9.01873400       5.87635627       0.05546178       0.09750747       0.10985788      -2.36250056 F F F       1.03056350      -1.67773813      -2.76031022
H        7.37236503       8.86801830       1.90740432      -0.02870734       0.19290580       0.05307429      -2.94300708 F F F      -0.85523552       2.31432225      -0.40126044
H        2.45471142       1.20930439       9.27479281      -0.06372733       0.09247540      -0.00592077      -2.15415850 F F F      -1.20530618      -1.39675245       2.37602502
H        0.62177641       9.22484829       9.24763834      -0.00707174      -0.03626008      -0.07004075      -1.67091594 F F F      -0.12831434      -0.60887561      -1.91148478
H        8.09053758       2.41527393       4.70406254       0.05049928       0.11199878      -0.03593446      -2.29443839 F F F      -0.04747743       0.18878209      -2.33731094
H        7.02132370       2.36086247       9.32012669      -0.06224420       0.01714265      -0.05699025      -2.54561565 F F F       3.48404272      -2.31155796       2.06944620
H        2.49686407       4.08856841       4.63924182      -0.12657487       0.03046214      -0.00560144      -3.02649883 F F F       1.41396108       0.55017525      -1.78283955
H        8.42316600       0.56792800       3.43160955      -0.03687444       0.04191824      -0.08237579      -2.06352264 F F F       2.02608957       1.03893917       0.60202702
H        1.91989676       3.59244992       7.38862441      -0.01696584      -0.03123264       0.09086255      -2.56141414 F F F       0.45163160       1.63139176       1.52047678
H        9.93071446       0.88970355       4.11147550       0.08434543       0.07283248      -0.13810506      -1.46864808 F F F      -1.92579635      -0.09765567      -0.77645476
H        0.15940466       2.81566767       5.50433463       0.14786603       0.03705806       0.02924029      -2.91250191 F F F      -0.62545491      -0.85436745      -0.68468412
H        1.35471906       1.67680984       7.10586166      -0.12622478       0.02146809      -0.04258030      -2.80494404 F F F      -0.72793929       0.66795453       0.58767613
H        6.79380659       4.83426949       4.74385018      -0.03527878      -0.00109676      -0.16016502      -2.97872122 F F F       0.66772971      -0.76120749      -0.23785917
H        5.93149343       8.05545066       3.61724428      -0.05515834       0.01512186       0.04196940      -3.33349159 F F F      -0.69579474      -0.20582351       3.62829551
H        6.00858441       8.11468608       2.96271000       0.01882687       0.07774156      -0.02012498      -2.38156384 F F F      -0.37920769       0.10283285      -2.52961107
H        1.21017193       3.55089327       6.49036699       0.00751545      -0.09229601      -0.02287046      -2.31232140 F F F      -0.22940876       0.30223165      -0.48803304
H        6.35799879       9.06674032       7.50486804      -0.03525315      -0.02474561      -0.00272683      -2.88809797 F F F      -3.60617821      -0.74807150      -1.11019453
C        3.74131347       9.50556183       9.79636778       0.01442510      -0.01369652      -0.00350739      -7.56580359 F F F      -1.19492349      -0.72549955      -0.18208946
C        2.46079044       1.48738910       7.35347874       0.02993287      -0.00306850      -0.00034448      -6.80962451 F F F      -2.32939373      -5.31668019       2.10638652
C        5.10542992       8.73502698       7.35925676      -0.00768067       0.00067741       0.01920979      -8.41530602 F F F       2.66531839      -0.80588735       1.39755189
C        7.87305092       6.53908757       2.07011320      -0.01282571      -0.00053436      -0.01198326      -7.68506705 F F F       4.16377495      12.16521850       6.62086710
C        9.43372727       8.43284633       1.55729565       0.00641312      -0.02930649       0.00809349      -7.70902483 F F F      -3.45276571       0.36195029      -0.51640514
C        5.81326772       5.54647558       8.05045373       0.02910720      -0.00537676       0.02016767      -7.83312699 F F F      -2.64951422      -0.90109502       0.03684736
C        7.75699629       4.47643744       1.28776450      -0.00647128       0.01206187       0.03033361      -9.30769084 F F F      -0.37682866      -3.05342733      -0.39464851
C        6.08950850       5.35624429       0.61541594      -0.02712393       0.01636751      -0.01598688      -7.52166901 F F F      -2.72509491      -2.06298045       5.80266343
C        7.99721244       8.06057552       1.74482708      -0.00800062       0.03146099      -0.00282056      -8.30757488 F F F       5.50527145      -4.33799860       1.08834936
C        0.01768271       9.36113702       0.80501236      -0.00855809      -0.01082313      -0.00532273      -7.70639437 F F F       1.00628352      -1.10065376       1.97991929
C        8.62795193       3.08994461       3.45062116       0.02426379      -0.00674696      -0.00986357      -8.43501266 F F F      -0.70439148      -1.23056394       1.94784952
C        4.99880139       6.98737771       6.33254865      -0.00482541       0.03542442      -0.01982328      -7.89523604 F F F      -2.28193915       0.62353542      -0.06729996
C        7.44544182       5.80357090       1.21076488       0.00429744      -0.03569047       0.02132992      -4.07282796 F F F      -5.77549897      -6.55687066      -7.22689077
C        9.10765105       5.42037622       2.65495609      -0.00674798      -0.00566287       0.00398152      -7.88220953 F F F       1.50861970       8.92858169      -1.48543151
C        3.45178882       4.84839756       6.70089433       0.00321043      -0.00525869      -0.01343177      -6.88347036 F F F       0.37591169       3.15511176       4.31251957
C        8.87668786       4.23876525       2.87490011      -0.03025743      -0.01918901       0.03519173      -5.60865738 F F F      -1.84968689      -8.82608721       1.82738210
C        3.48739962       0.22350197       7.65264469       0.00531293       0.02563199       0.00628741      -8.81963956 F F F       0.81579577       0.98038534      -0.37262659
C        1.23426117       9.46827650       0.10633703       0.02181458       0.01329920      -0.03896232      -8.28478631 F F F      -2.91662651      -0.51526448       0.36349360
C        4.58433110       5.83299410       7.22690529       0.01165465      -0.00517106       0.01602960      -7.66168955 F F F       0.62616874       0.42491648      -2.68643704
C        4.64398375       8.19981881       5.71172340       0.01765905      -0.03035999      -0.02778695      -6.16773853 F F F       0.33399312      -0.68327810       6.08360082
C        2.34249464       0.09960509       9.87083375       0.00151202       0.00653437       0.01270846      -8.57525534 F F F       3.53095634       3.02558449       0.00730512
C        5.97587403       5.26343846       9.35162295      -0.02971420      -0.00420524      -0.02380111      -8.42816264 F F F      -0.93373510       0.50844111      -4.58542220
C        4.09692797       9.24577729       8.45709832       0.00706223       0.01480866      -0.02644976      -5.20658648 F F F       1.03874652       1.36000435      -3.38185085
C        2.30100932       4.76588241       7.62114819      -0.00255778      -0.00601234       0.01552015      -5.66913174 F F F       3.20519370      -0.81432210      -3.16410750
C        4.72601754       4.77349650       1.35802499       0.00129787      -0.02506218       0.01412845      -4.98254086 F F F       5.34419973       2.12601081      -2.63226327
50
Lattice="9.9905032156 0.0 0.0 0.0 9.9905032156 0.0 0.0 0.0 9.9905032156" Properties=species:S:1:pos:R:3:velocities:R:3:local_energy:R:1:fix_atoms:S:3:forces:R:3 temperature=4272.81413172 pressure=-15065.39166331 time_step=0.5 time=40.0 energy_soap=-331.61908547 energy_2b=83.73821773 energy_3b=3.11551649 energy_core_pot=0.0 energy_vdw=0.0 energy_exp=0.0 energy_xps=0.0 virial="-27.24932539 3.48340693 -2.50578588 3.48340693 -26.57268556 -3.36281376 -2.50578588 -3.36281376 -28.43269862" volume=997.153669 step=80 config_type=iter_10 energy=-244.765351 stress="0.02732711 -0.00349335 0.00251294 -0.00349335 0.02664854 0.00337241 0.00251294 0.00337241 0.02851386" pbc="T T T"
H        3.31507726       2.49787693       7.30865061       0.01282480       0.04190822       0.04872828      -1.98643283 F F F      -1.21444312      -1.26908350      -0.06174888
H        0.70497497       2.44243107       4.62636514       0.05842708      -0.04415969      -0.08169454      -3.16289184 F F F       0.98427340       0.61161761       0.80826649
H        5.92747104       4.61049654       3.19213770      -0.02782199      -0.08473196      -0.02734671      -2.50410910 F F F      -0.31858322      -0.40686287       3.87895189
H        7.81253692       1.76793024       9.72400434      -0.01839303      -0.00087509      -0.03792298      -2.45011246 F F F      -2.54786603       0.25090465      -3.72075693
H        4.99952053       1.36974409       4.32926731      -0.12096678       0.07157294       0.00656153      -2.95104856 F F F       1.22591928      -0.67027395      -0.34189206
H        1.34579186       1.70087647       7.64006257      -0.01116407      -0.02982480       0.00700341      -3.10539721 F F F       0.58576598      -1.71976238      -0.58054569
H        1.57954154       5.08380634       4.87245222      -0.09153407       0.07560790      -0.00844672      -2.94122809 F F F      -0.28508739       0.32675296      -2.13618978
H        4.38719113       1.70006394       4.40932043      -0.05601816       0.01532733       0.08938926      -2.99758872 F F F      -1.15809284       0.72290519       0.16692032
H        5.56562502       9.15503127       5.22264461       0.05104982      -0.03301940       0.10229331      -3.01283184 F F F      -1.51875408      -2.31052661       1.83694951
H        7.91819936       9.55384109       2.09789841      -0.09558637       0.08424970       0.05177081      -2.88637043 F F F      -0.50155526      -2.97571686      -0.19162759
H        2.39024291       1.01199794       1.00867077       0.06125059      -0.07177883       0.03579705      -2.95663136 F F F      -0.06196012      -2.50747684      -2.94317014
H        1.56888193       9.22782390       8.50031264      -0.06310191       0.02506133       0.03297156      -2.55716827 F F F      -2.82399116       0.16321825       1.46720805
H        8.85943969       1.99089932       4.06020868       0.09433188      -0.03536104      -0.11072712      -2.67969486 F F F      -3.19881459      -5.67880500       5.77333655
H        7.16884364       1.74647569       8.81412203       0.05341931      -0.02882748       0.02257241      -2.33162462 F F F       3.01085638      -0.04315978       3.83690552
H        1.43010504       5.26290623       4.05231543       0.00094917       0.06922123       0.02078455      -2.90603388 F F F       0.17467543      -0.61795734       2.28031408
H        9.08022928       2.02852813       2.47650324       0.01081991       0.01351136      -0.01500237      -3.22177771 F F F       0.72161888       1.83584856       1.40831748
H        2.42823233       5.22210567       8.43338920      -0.04465408       0.06051742      -0.02068340      -2.62013327 F F F      -2.56626772      -1.30579520       1.83830121
H        9.59084926       3.22690482       0.66613748      -0.00627911       0.13881780      -0.19751759      -1.01580499 F F F      -0.88181556      -0.20502524       0.92934577
H        1.43739279       2.56768678       5.24049251      -0.06901976      -0.04349399      -0.02051760      -2.37461041 F F F      -1.39151620      -0.61927871      -1.89746239
H        9.84709481       1.20868982       7.27811786       0.03812593      -0.01923754       0.04426279      -1.38755883 F F F       1.90483184       0.53896836       0.40693390
H        6.13096349       4.54502231       4.08121816      -0.14488429       0.08856492      -0.02651764      -2.71341743 F F F      -0.69400466      -0.04102271      -3.09636342
H        4.90092190       8.36127536       3.69221136       0.01104332      -0.02498325      -0.02491097      -2.35598543 F F F       1.50848063       0.28124677       0.25647121
H        5.88861196       8.84145963       3.26719782      -0.02856655      -0.01914746      -0.06387498      -2.40709825 F F F      -1.17552093      -0.94620028      -0.49757030
H        1.90715051       3.02277374       6.55550896       0.07201504       0.03013427       0.03862331      -2.08781908 F F F      -0.14928493       0.78949864       1.00992541
H        6.11435855       8.68816593       7.29704445       0.08061415      -0.00192633      -0.02001196      -2.73271994 F F F      -1.48888412      -0.18195139       1.11806089
C        3.68935146       9.41941258       9.50695822      -0.02023513       0.01277941      -0.02006321      -8.39747727 F F F      -1.65120529       2.09882666       0.68741211
C        2.49670179       1.40888184       7.21613613      -0.02102313       0.02198977      -0.01386011      -6.77895678 F F F       2.43508807       1.72283161       1.98121833
C        5.04620697       8.44770826       7.74970651      -0.00484388      -0.02223858       0.01006339      -8.66821023 F F F       1.37857441       1.10515002      -2.68559322
C        7.79091926       7.14832634       2.06043434      -0.00819936       0.01955642      -0.00243014      -8.34570870 F F F      -2.16445969      -6.95456209       0.62723708
C        9.40012872       8.20143520       1.40118378       0.01157269       0.00634859      -0.02813224      -8.22212354 F F F       2.34131693       2.07332163      -1.91795205
C        5.88091868       5.49812063       7.81390701      -0.01517603      -0.00840865       0.00131873      -8.23958021 F F F      -0.39766328      -1.09565881       4.44175569
C        7.79692002       4.02216204       1.97737341      -0.00126221      -0.01190746       0.03304387      -8.04295040 F F F      -1.94793026       1.73012111      -2.75685373
C        5.61845406       5.50901906       0.66874089       0.00226989       0.01055592      -0.01118729      -2.51076126 F F F       0.88473806      -2.96606094      -1.34378962
C        8.13548645       8.35036778       1.89495640       0.01514240      -0.00955716       0.01352392      -5.16397026 F F F       1.58025521       6.42071197       0.25717647
C        0.26039181       8.93490969       0.68179516       0.03289146      -0.03040206      -0.02116575      -8.11782517 F F F       1.11561937      -0.35352738      -2.65119007
C        9.12212112       2.70857165       3.51620919       0.01568253       0.00532730       0.01515625      -6.94208159 F F F       1.33999187       7.91153272      -8.34769200
C        4.78532869       7.05235672       6.50672809      -0.01417434       0.03334733      -0.00071754      -9.14528621 F F F       0.34989753       9.34303493      -4.09815284
C        6.86690901       5.50826620       1.25050582      -0.02530547      -0.00367865       0.00985314      -9.31918474 F F F       2.42057096       0.21156223       1.83489154
C        8.81602716       5.43977861       2.71863585      -0.02522706      -0.00144273       0.00467339      -7.91173277 F F F      -0.74778354       0.92222574       0.18577187
C        3.61840049       5.12200774       7.08559730       0.03102153       0.02735186       0.02395694      -8.68011352 F F F       1.12022682      -1.32558547      -1.20131365
C        8.42854099       4.18707175       3.13464580      -0.01057359      -0.00688782      -0.00504331      -4.18618119 F F F       2.87691245      -2.90625112       0.98105075
C        3.83385840       0.75901495       7.82531360       0.02084335       0.02528456       0.00586132      -8.65157160 F F F      -3.69901516       2.22918280      -2.63724843
C        1.06627289       9.46786517       9.60735384      -0.00364499      -0.00116478       0.00247390      -7.53690816 F F F       3.25769625       0.40631745       2.87606489
C        4.78607048       5.85879748       6.99743209       0.00165704      -0.01272536      -0.01674956      -3.74721418 F F F      -0.60159077      -2.87032188       1.33999603
C        4.87276170       8.10046555       5.24457699       0.01215357      -0.00777681      -0.01316129      -6.14190058 F F F       1.38641529      -0.13585568       1.29002331
C        2.58358863       0.21025973       0.01289670      -0.00085545      -0.01988200       0.00231500      -7.41501608 F F F      -1.72239268      -1.80526374       1.55185717
C        5.48823061       5.15271809       9.32295594      -0.01713863       0.00382064      -0.01226381      -9.21489172 F F F       0.62154766       1.85131374      -2.81851867
C        4.25565244       9.57227135       8.12269929       0.01442422      -0.00685088       0.00869764      -4.43064380 F F F       0.73293113      -3.86310486       1.96098905
C        2.62465935       4.49757373       7.61247703       0.01644008      -0.01708543       0.00317421      -6.68061933 F F F       0.78923213       1.18461291      -1.34729087
C        5.16311728       4.42795155       1.49087964       0.01316504      -0.02965891       0.02364846      -7.92835254 F F F       0.16104666       1.04338413       0.24126978
50
Lattice="9.9905032156 0.0 0.0 0.0 9.9905032156 0.0 0.0 0.0 9.9905032156" Properties=species:S:1:pos:R:3:velocities:R:3:local_energy:R:1:fix_atoms:S:3:forces:R:3 temperature=4733.4284659 pressure=6668.33017759 time_step=0.5 time=60.0 energy_soap=-351.14784702 energy_2b=100.80675988 energy_3b=-0.91965928 energy_core_pot=0.0 energy_vdw=0.0 energy_exp=0.0 energy_xps=0.0 virial="-17.68114548 -2.47884102 7.20922555 -2.47884102 -25.05384402 9.77248236 7.20922555 9.77248236 -4.77500638" volume=997.153669 step=120 config_type=iter_10 energy=-251.260746 stress="0.01773162 0.00248592 -0.0072298 0.00248592 0.02512536 -0.00980038 -0.0072298 -0.00980038 0.00478864" pbc="T T T"
H        1.91429263       2.21696363       8.45873613      -0.06628983      -0.04772743      -0.00673848      -2.23248251 F F F       0.13522634      -1.10984510      -1.31668606
H        1.57036305       1.94895069       4.26063556      -0.02724410      -0.03843141      -0.02174405      -2.58692016 F F F       0.38924042       0.46343512      -0.60523248