      50
 Properties=species:S:1:pos:R:3:forces:R:3:local_energy:R:1:hirshfeld_v:R:1 Lattice="9.9905032156        0.0000000000    0.0000000000    0.0000000000    9.9905032156    0.0000000000    0.0000000000    0.0000000000    9.9905032156" energy=-238.246120 energy_soap=-250.06665595  energy_2b=11.26524627 energy_3b=0.55528924 energy_core_pot=0.00000000 energy_vdw=0.00000000 energy_exp=0.00000000 energy_xps=0.00000000 virial="-6.69513142          10.29662659     -5.73379526     10.29662659      0.69810399      4.15265524     -5.73379526      4.15265524      6.81943706" stress="0.00671424           -0.01032602      0.00575016     -0.01032602     -0.00070010     -0.00416451      0.00575016     -0.00416451     -0.00683890" volume=997.153669
 H              6.63906501       8.72736405       2.22693511       2.97035059      -2.76440062      -0.23268861      -3.01512787       0.74148281
 H              2.64830661       4.19410758       3.23707972       2.80903884      -1.29652030       0.48686566      -4.27575503       0.71185784
 H              3.39897830       9.89804616       3.14180955       0.69572511      -0.64698948      -0.22007444      -2.52235862       0.91799920
 H              9.05308739       2.84887869       5.16511122       0.45959120       2.17987607       0.44669707      -3.86237794       0.67158982
 H              1.82482880       8.85364605       5.04332321      -0.47855572      -0.40625350      -1.17509124      -3.03109109       0.54952007
 H              7.57864060       0.76586151       3.48205429      -0.64417824       1.47169386       0.61669612      -2.17335865       0.69745052
 H              7.68461231       9.24804155       9.84898762      -0.69846164      -0.69256054       0.69674931      -2.68893439       0.81395829
 H              4.04781826       8.92975245       2.79008974       1.08053777       0.10878675      -0.40957769      -1.80729118       0.82620311
 H              5.80182946       0.44271229       6.48144342       0.61733494       0.15292441      -0.85175145      -1.70037185       0.82790048
 H              8.06747440       0.19302653       2.36762004       0.04033703       0.79352424      -0.10939877      -3.09166272       0.77299979
 H              5.80478312       5.93221455       2.34430493       2.50043807      -0.18508019       1.14766989      -2.77862677       0.71523729
 H              2.00877900       9.01529148       5.70955456       0.42886997       0.34520506       1.30140022      -3.14426119       0.53297005
 H              7.25771601       1.48464766       3.89538842       1.00085315      -1.26740331      -1.33697438      -3.12648379       0.67233884
 H              6.13280474       9.65640124       7.31439817      -0.82215426       0.42760861      -0.84753069      -2.51275815       0.87170159
 H              4.87326820       6.66655013       6.77901757       0.05589535       0.04907569       0.15323354      -3.03369569       0.56507844
 H              4.87389631       8.53853247       2.35384734      -1.74574007       0.36232628       0.67110137      -2.58141111       0.76142947
 H              5.95646937       0.88292839       5.51652475      -0.94554656      -0.95804002       2.11904765      -2.68757035       0.78855727
 H              6.62641282       5.66868521       2.81889556      -3.07617101       1.46108102      -2.07403309      -2.48646849       0.78693972
 H              4.52931160       6.28952273       7.33895548       0.18533034       0.11208470      -0.20743692      -3.30151234       0.59052445
 H              7.93682952       9.78453406       7.92406536       3.48506670       0.56963243       1.90363595      -2.14237507       0.74402472
 H              8.81984910       9.95680909       8.50622886      -2.31629258      -0.63388128      -2.60456440      -3.03158388       0.79459923
 H              7.95187433       5.27438961       2.22996123       3.13221428       3.64068578      -1.08730467      -3.08727866       0.77931185
 H              6.00600228       4.87076305       4.52787605      -1.60453762      -1.52863158       0.80881504      -2.64807287       0.65565235
 H              7.43379296       1.40510381       9.46931400      -1.22635022       3.03659129      -2.34284720      -3.75788062       0.70809002
 H              5.33097655       4.35311723       4.55047695       1.32082559       0.75562228       0.43109478      -3.06672603       0.62481714
 C              1.20175556       4.06812675       9.82212152      -1.08114422       6.19477537       6.74517004      -7.22627578       0.87612016
 C              9.46014477       3.93360854       5.23313150      -6.42799623      -6.74437826      -0.61399919      -7.07756216       0.82938917
 C              1.01559646       9.85807797       0.82512430      -2.35633787       0.19353747       2.04938444      -6.18053848       0.92519832
 C              0.99796899       5.22968689       4.04319489       2.92890834       0.86320800      -3.39545926      -7.20846020       0.84916026
 C              0.92341579       5.07945910       1.70951748       3.26013125      -1.63418738       2.53704726      -7.45002962       0.92201581
 C              8.70026151       8.73197693       1.00533219      -1.37000043      -1.37587825       2.04902313      -7.02625077       0.89710539
 C              1.97762359       2.53654269       8.25216127      -1.42768858       2.33485512      -1.23463151      -5.61588048       0.95487169
 C              1.03988833       7.42268543       1.41343882       1.67626080      -5.04102179      -0.27228645      -7.41718896       0.86605549
 C              1.98467762       5.31885497       9.93720864       2.01911496       0.89174728      -4.66324611      -7.45249983       0.86074408
 C              2.00144639       4.96848902       3.21046950      -5.83030423       1.18979763      -1.43195170      -5.96950626       0.86470094
 C              7.98402431       7.97030363       1.94606608      -0.24592195       0.75113820      -2.91497808      -6.09836314       0.90398577
 C              9.92619837       6.95631024       2.27555997       1.73777054      -2.91479682       0.37149680      -6.57884575       0.88660377
 C              1.81815710       4.17217094       7.55686898       0.81735454      -1.83715119      -3.66896724      -7.61430175       0.86844049
 C              0.63635343       8.61745927       1.65914739      -0.02381560       7.38449986      -3.71603780      -6.73211756       0.87070068
 C              0.36054703       4.78067881       5.13664570       4.70835653       2.23368075       4.87992870      -6.37020013       0.85939913
 C              1.86785937       6.30504371       0.92458066      -2.41433245      -0.90654019       1.39123522      -7.30001392       0.86696509
 C              8.41466693       0.21911424       0.78260087       0.00018492      -1.53251549       2.42431264      -6.32534655       0.90011848
 C              9.71170773       0.66226789       0.93661671       4.88942778       4.08869533      -2.36549424      -7.53604068       0.87070518
 C              0.54140587       1.63920580       0.04644670      -1.22028324      -0.61092103       1.08065458      -6.10590181       0.86161071
 C              2.28109379       4.90396282       8.56129922      -0.15456898       2.28665079       1.78654134      -6.76012738       0.85771590
 C              7.30329033       0.77045287       0.25712988       0.58257525      -1.80403457       1.07870046      -5.67328295       0.90441365
 C              1.60479601       3.52695583       1.63470040      -1.72998465       3.24627486       0.97680805      -4.69621299       0.96717626
 C              1.54233937       4.37698038       6.22106805       0.52229487       0.65958075       0.84502875      -6.76267786       0.87234361
 C              1.22222075       2.85462344       9.48155222      -0.59348906     -11.86981656      -3.15930022      -7.08243394       0.87021576
 C              8.75254683       6.55869867       1.94970754      -5.49093329      -1.13415753       1.93728734      -6.43102709       0.88652891
      50
 Properties=species:S:1:pos:R:3:forces:R:3:local_energy:R:1:hirshfeld_v:R:1 Lattice="9.9905032156        0.0000000000    0.0000000000    0.0000000000    9.9905032156    0.0000000000    0.0000000000    0.0000000000    9.9905032156" energy=-235.936666 energy_soap=-248.15715446  energy_2b=14.63690377 energy_3b=-2.41641501 energy_core_pot=0.00000000 energy_vdw=0.00000000 energy_exp=0.00000000 energy_xps=0.00000000 virial="-28.66665068         -5.57535444      0.02216733     -5.57535444    -27.69252663     -4.29570393      0.02216733     -4.29570393    -26.86269497" stress="0.02874848            0.00559127     -0.00002223      0.00559127      0.02777157      0.00430797     -0.00002223      0.00430797      0.02693937" volume=997.153669
 H              5.10632103       9.54525852       2.16677869       1.16058756      -0.10961092      -0.15308679      -1.40336961       0.90395299
 H              2.35812765       5.28692626       3.94351815      -0.86795101      -2.23227498      -2.19942977      -3.74745024       0.74507741
 H              3.86962877       8.89121335       2.60721072      -0.21525251       1.51475344      -0.40046689      -2.28085488       0.68192020
 H              9.22833650       3.64786376       6.46396714      -0.04615371      -0.02715986      -2.37300172      -3.89469192       0.75735657
 H              1.91960412       8.16849760       5.85531666       0.94336296       0.79266268       0.54999559      -3.06670775       0.53954724
 H              7.47758603       2.65993566       6.71650997      -1.64613384       0.16905085      -1.41456269      -2.80550308       0.69215407
 H              7.60152203       7.22998730       9.04049232       0.32205559       0.29713023       1.31627583      -1.52069364       0.85760665
 H              3.40561252       9.36507002       2.15027543      -0.57799168      -0.14019697       0.29213487      -3.14116673       0.62417368
 H              6.89535327       0.19606398       6.95320441      -0.80037000      -2.12209162      -0.17337979      -2.22036907       0.74034738
 H              6.52705675       0.64208206       2.25466289      -0.05668360      -0.20047824      -0.55242880      -1.99499651       0.82205103
 H              4.01918108       6.72453165       3.12329522       0.68434231      -0.20666461       1.46772280      -2.68127777       0.60540633
 H              1.38242463       7.82077071       5.56130502      -1.09976360      -0.63540951      -0.51423675      -3.21663064       0.56129427
 H              6.77152828       2.69986003       6.20081621       1.60350847       0.41672162       0.76631621      -2.58789272       0.66453543
 H              6.87107979       1.30786267       7.86505819      -0.29071506      -0.37809126       0.24898752      -2.13703673       0.86152891
 H              6.08319642       7.48230272       6.93919564       0.25792499      -2.11857372      -1.43226695      -2.67379488       0.64396842
 H              7.70589028       8.35130592       2.65152795      -1.07040824       0.14851864      -2.08861727      -3.50940370       0.69301988
 H              6.65343658       9.30949854       6.84568019       0.65044869       2.79932254       0.14709719      -2.80784402       0.66730748
 H              3.82031480       6.64793590       2.44579380      -0.56066425      -0.85201000      -1.71359698      -3.25249416       0.64465229
 H              6.27160278       6.91029153       6.31155334      -0.54682896       0.91398753       1.36945595      -3.06890973       0.61655948
 H              9.04581197       0.08501491       7.96361967       2.44736901       1.97716827      -1.89804126      -2.96830892       0.78135977
 H              9.58686063       0.61422746       7.41801237      -1.88188358      -2.27071987       1.88795740      -2.74406994       0.72390212
 H              7.68537224       6.31368453       2.19057840       1.34736430      -2.11229061      -0.77821662      -3.66546790       0.71359894
 H              4.49515754       3.30207895       5.56765202       1.37151225       1.50560022       0.12712434      -1.35986265       0.91651441
 H              6.49370907       1.58294562       9.77310642       2.68837996      -2.85996683       1.87414036      -3.52260279       0.73760453
 H              5.89247962       4.19547107       5.80102907      -1.94534152      -0.99052932      -0.29027441      -1.73052651       0.87958367
 C              1.03394222       4.12792215       9.80287882       1.53574767      -0.61116302       2.24963653      -6.94138734       0.92481112
 C              9.70580210       3.82596153       5.31920315      -0.10817527       2.31810764       1.65207194      -5.37204291       0.93631873
 C              1.12875543       9.86463627       0.48326689      -0.92497935       1.01671454       1.79840827      -6.04648537       0.91328382
 C              0.41335823       5.09964536       3.97084361       0.40535688      -1.38477113       2.17195865      -6.19999433       0.92885867
 C              1.12553628       4.85374872       1.63879084      -0.27176272      -2.08010591      -1.74731088      -6.56164978       0.88923342
 C              8.73260719       8.86036383       0.71385761       3.78839592       0.47233789       2.40264024      -7.99924754       0.88073712
 C              2.03228408       3.14096874       8.30169918      -0.50735042      -0.46056592       2.92373782      -6.04724900       0.91146893
 C              1.04236701       7.35308410       1.40214898      -2.41865340      -0.98795642       2.45743094      -7.38262222       0.88634547
 C              2.43558184       5.26073751       9.87178610      -3.73628037       1.14127685      -1.43850900      -6.62597939       0.89484885
 C              1.60313233       4.64170669       3.05076169       0.08243290       0.05639787       6.03212583      -7.00856548       0.86586991
 C              7.91738013       7.86674788       1.35946885       1.44702502       6.52949760       0.12747920      -6.17233516       0.87046295
 C              9.89630774       6.57058274       2.43469542      -1.52247963       1.86096048      -1.95395969      -6.89926418       0.92120669
 C              1.30829380       4.07582478       7.56257344       5.63558119       2.11343848      -4.08943330      -7.30980988       0.90755112
 C              0.54613154       8.76085342       1.28830559      -0.92629423      -1.04892907      -5.33901720      -7.57361996       0.89486911
 C              0.81055336       4.69905637       5.60680615       0.54576710      -1.50159980      -4.94434937      -6.74870735       0.89763999
 C              1.63115577       6.00431943       1.16938929       2.61530919       3.21650950      -5.60224944      -7.21360230       0.86646904
 C              8.46749567       0.28241017       0.79512273      -1.33570840       2.33822685      -2.68106419      -7.80683725       0.88542920
 C              9.64809633       1.33196844       0.82945380      -4.42730219      -0.77755154       0.81797178      -7.03188006       0.87574826
 C              0.80703217       1.51434535       0.29739441       3.44009457      -2.56962398      -0.94727841      -7.03155156       0.87227282
 C              2.29576641       5.07850464       8.43267153      -2.32066873      -2.53546003       3.84336340      -5.80688599       0.91566030
 C              7.26576556       0.64905285       0.14628568      -0.75337896       1.98451671       0.61847875      -5.78186194       0.87387830
 C              1.60488477       3.52576090       2.17725849       0.08532811       1.51148014       0.88533315      -5.51464125       0.92928016
 C              1.97989279       4.15600765       6.06229920      -2.84516003       0.98420973       3.35136364      -6.01967603       0.93842994
 C              1.36121609       2.66939674       9.57705222      -0.34735884       0.51836323      -0.93649747      -7.95361475       0.87567498
 C              8.57085346       6.82085601       1.70799610       0.99379945      -5.38315838       4.28206743      -6.88522819       0.85869651
      50
 Properties=species:S:1:pos:R:3:forces:R:3:local_energy:R:1:hirshfeld_v:R:1 Lattice="9.9905032156        0.0000000000    0.0000000000    0.0000000000    9.9905032156    0.0000000000    0.0000000000    0.0000000000    9.9905032156" energy=-241.393825 energy_soap=-254.17425638  energy_2b=13.54403746 energy_3b=-0.76360600 energy_core_pot=0.00000000 energy_vdw=0.00000000 energy_exp=0.00000000 energy_xps=0.00000000 virial="-6.80097041           3.34895549      2.38609494      3.34895549    -16.89120278     17.72874506      2.38609494     17.72874506     -7.43263235" stress="0.00682038           -0.00335851     -0.00239291     -0.00335851      0.01693942     -0.01777935     -0.00239291     -0.01777935      0.00745385" volume=997.153669
 H              6.01572671       0.59027832       0.96892575       2.73380808       0.86362497      -0.33918676      -2.72223912       0.77073318
 H              2.43674090       4.48222881       3.48139867      -2.24788087       0.87829490      -0.38614994      -3.95387350       0.73517560
 H              2.74435038       9.27986362       1.07697510      -0.38762527       0.27330583       0.04151387      -3.24335837       0.74954101
 H              8.87720626       3.48112952       5.14040260      -2.32909139      -1.53522484       0.22587062      -4.05068373       0.69005271
 H              1.32650696       7.36021438       6.09321821      -0.19522849      -0.24216222       0.66246919      -3.17720152       0.63279575
 H              6.49053228       3.70852534       8.81311694      -0.22192279       0.30170878      -0.15888757      -2.93234201       0.59468731
 H              7.46711516       6.54500457       9.04466528       0.22689445       0.38080642       0.68525435      -1.59944111       0.87559479
 H              3.40511138       9.21978632       1.70716910       0.44207177      -0.00603807      -0.61652053      -2.35227052       0.71833762
 H              7.56083612       9.08168490       8.53916342       0.47921601       0.36147585      -0.64076480      -3.29156100       0.69553369
 H              4.43123112       9.19016605       1.29983648      -0.51609864      -0.27429133       0.42024395      -2.07720097       0.80846502
 H              1.70013047       7.57423938       3.34293128      -1.22680805       0.05847976      -3.03132671      -3.93292060       0.66237140
 H              2.02779371       7.61235667       5.95370824       0.01451808       0.05539627       0.80937219      -2.74908248       0.61064856
 H              6.98550107       4.28550623       8.68572424      -0.06035186       0.17170459      -0.08802932      -2.96559756       0.59106931
 H              7.48948746       1.68933838       9.24213909      -0.84560746      -0.63009124       1.49704063      -3.33540069       0.72249673
 H              7.88437714       6.99723585       6.60705183      -0.12584427       1.31046643      -0.88704139      -2.95701626       0.61728634
 H              7.90907279       6.66827077       2.97847889      -2.76317841       1.56235571       2.89936640      -3.85817150       0.67896903
 H              7.91189658       9.59313226       8.05092994      -0.66262897      -0.85270182       0.45053109      -3.00725817       0.67293305
 H              1.96707525       7.61625849       3.95893971       1.48052290       0.12327457       1.76552817      -2.08102759       0.63833660
 H              7.80216801       7.74376567       6.25833302       0.17840980      -1.70019690       0.39009750      -3.00495955       0.61720922
 H              0.33743423       0.94331532       8.63330058      -1.70944198       0.25680137      -3.49135147      -3.26755502       0.70604429
 H              9.79261466       1.15739968       7.85205056       1.82601777      -0.61789319       2.55926020      -2.55575090       0.77049539
 H              7.87487341       6.25912191       1.38154876      -3.04382707      -4.47371341      -3.14895929      -3.85289653       0.68611443
 H              4.84765436       3.71915512       7.14530523      -0.65995728       0.18135417       0.09397583      -1.35513468       0.85562593
 H              6.19966551       0.59831010       9.51213149       1.42338878      -1.12961173       0.31633541      -2.74250809       0.73702706
 H              2.99782419       3.54554275       6.13465785       9.77173494      -5.35499175      -1.55349427      -4.18673460       0.66286146
 C              0.82148450       3.62372543       0.54958994       2.33411820       1.69008289       3.56515780      -6.55341429       0.90602649
 C              9.67973280       3.90288027       5.65356250       6.06108671       3.95668519      -3.31582038      -5.42251539       0.87430418
 C              1.23919133       0.02096103       0.21265905       0.66547035      -0.57204163       1.53328674      -5.53679791       0.90127271
 C              0.23539823       4.45636340       4.17453516       2.72302593       1.38903643       3.82873092      -6.53586924       0.88151323
 C              1.06305324       4.88786915       1.58147737       0.17967136       0.31782865      -1.41969467      -7.89009702       0.89102917
 C              9.18473040       9.07006593       0.56349033      -8.34842753      -1.15516211       1.97392938      -7.77980608       0.85640750
 C              1.89689032       3.28543998       8.53805468      -0.75627010      -1.21286140       1.45589151      -6.03510569       0.88441079
 C              1.08044885       7.45333323       1.25312947      -1.40956594      -2.14361741      -1.91798173      -6.66056036       0.86529167
 C              2.35980982       5.40418163       9.48088083       0.36803759       4.22900802       7.29191166      -6.58448772       0.89816653
 C              1.16558814       4.48737097       3.10068186       3.42285434      -3.73451276       1.16829835      -7.23852837       0.88187784
 C              8.32605863       7.95949547       0.77492757      -1.66663629       0.80893043       2.66343772      -6.09588055       0.88091313
 C              9.58319825       6.21482554       2.32299491       0.00061151       2.92363384      -1.46856933      -4.60389787       0.92721915
 C              1.66383129       4.38509807       7.37974838      -1.06242813      -4.67633278       1.32079738      -7.37804208       0.85841444
 C              0.39993414       8.62905558       0.57951602      10.10993996       3.31197992       0.36719593      -7.80985932       0.86320080
 C              1.08579009       4.67073491       5.55406680      -4.31190516      -3.64463005      -1.18181445      -7.08078444       0.86642822
 C              1.64438737       6.20304348       0.99843263      -0.98806214      -1.31633608      -2.31653280      -7.09340135       0.88685650
 C              8.59285972       0.56201014       0.59951104      -0.06392554      -3.05417264      -0.98072319      -7.21513877       0.87184317
 C              9.40045639       1.62794609       0.63446661       4.58350491      -0.74850069       1.75071309      -6.22954517       0.92080025
 C              1.16315965       1.47144783       0.55425420      -3.99322994      -4.87992552      -1.17559434      -7.64242476       0.88492941
 C              2.23826808       5.25421559       8.26216460       0.73093645       1.62715243      -1.05667474      -6.04148925       0.85325104
 C              7.26792616       0.79343980       0.09244077      -3.64496529       2.21859453      -1.54714600      -7.27547661       0.82879476
 C              1.49810569       3.12759101       2.42382124      -2.20747997       1.77880566      -1.74971202      -4.76892194       0.97657991
 C              2.22020603       4.00354658       6.17966015     -10.80044786       6.70458063      -1.33050424      -6.82541255       0.79829075
 C              1.61942271       2.62949387       9.92802518      -0.53126970       4.45091654      -2.92401924      -7.14380053       0.88448414
 C              8.16079691       6.92229264       2.02300708       7.02426652       1.76872477      -3.00971070      -6.70038156       0.81528691
      50
 Properties=species:S:1:pos:R:3:forces:R:3:local_energy:R:1:hirshfeld_v:R:1 Lattice="9.9905032156        0.0000000000    0.0000000000    0.0000000000    9.9905032156    0.0000000000    0.0000000000    0.0000000000    9.9905032156" energy=-246.397550 energy_soap=-263.60203848  energy_2b=17.21318875 energy_3b=-0.00869979 energy_core_pot=0.00000000 energy_vdw=0.00000000 energy_exp=0.00000000 energy_xps=0.00000000 virial="-21.75033336          1.22729245      0.74162471      1.22729245    -21.05304832     10.10176791      0.74162471     10.10176791      2.86903282" stress="0.02181242           -0.00123080     -0.00074374     -0.00123080      0.02111314     -0.01013060     -0.00074374     -0.01013060     -0.00287722" volume=997.153669
 H              6.71549147       0.54262171       0.60374625      -2.80945048      -7.26490826       6.14453967      -2.81321632       0.67841578
 H              3.29998124       2.65820740       4.56355039      -0.18428281       0.49967169       0.09687716      -1.72885321       0.84084256
 H              1.88349055       8.83275775       9.01703981      -0.97286379      -2.04715013       1.48362726      -3.63717567       0.72656448
 H              9.27276468       3.65745773       6.50077523      -0.87469484       0.66496421      -2.15739097      -4.22958939       0.70874048
 H              2.04349225       6.71545842       6.96356497      -0.08399012       0.18772005      -0.06690890      -3.09097598       0.70539186
 H              5.81455893       5.85216169       0.08995934      -0.09911622       0.03027475      -0.27774661      -2.65158324       0.59984367
 H              7.87350445       7.33275865       0.16901319       0.88134313       1.35196444      -1.19106240      -3.17713542       0.80363498
 H              4.36180230       0.11972565       1.28051225       0.78468953      -0.50336098       0.01684135      -2.68514266       0.58787895
 H              7.70124043       8.38947585       7.74699809      -0.57999666       0.48218783      -0.31862044      -2.77108418       0.61724387
 H              3.69254127       0.37896565       1.33414349      -1.45810038       0.33283759      -0.03203258      -3.60250845       0.62375947
 H              0.62259608       8.64351530       4.35068468       0.41887632      -0.01315770       0.24001267      -3.00984068       0.56566879
 H              1.40794717       6.82736188       7.41276216       0.69791418       0.41386315      -0.39148005      -2.83049990       0.71104699
 H              5.32490976       5.27541757       0.05114440      -0.44861081      -0.33447049      -0.21265755      -3.26993054       0.58415995
 H              6.25376431       1.52083939       0.00579425      -1.36798276       4.27135687      -0.82401759      -3.51329384       0.62750792
 H              9.78767929       7.24577426       6.53839062       0.56501154      -0.53900362      -0.68640012      -2.88082919       0.63602226
 H              6.79500581       7.64306855       2.25427845       1.50389326      -0.03189600       0.03745565      -2.74415799       0.70453466
 H              7.68604193       8.22590781       8.48836494      -0.05340821       0.35398960       0.57488017      -3.14169992       0.66736683
 H              0.07065866       8.91951652       3.94979532      -0.45416526       0.14146484      -0.24008351      -3.22478529       0.57650256
 H              9.14816830       7.52921788       6.80686639      -0.88095055       0.24890599      -0.32370385      -2.74850621       0.63045823
 H              0.59104803       2.04884911       7.18865512       0.87063453      -2.62530128       1.46000010      -2.34253173       0.86232475
 H              0.75246378       1.00462227       7.93786588      -0.46151210       2.47027329      -1.37164288      -2.35637174       0.88956258
 H              7.17688316       6.12472819       1.73091482       1.69533576       0.16904570      -0.16224969      -3.46411993       0.67723084
 H              3.20413817       2.93186122       9.49973673      -1.93221118       0.20702374      -1.23378925      -2.95325192       0.69813326
 H              7.47876216       0.94725942       8.62720503      -2.29203599      -0.48352496       3.00902235      -3.75746302       0.68548791
 H              3.58784794       3.89048329       5.45523199      -3.89179473       0.00411982       1.73082623      -3.12517545       0.75288228
 C              0.97081595       3.53861353       1.38731486       0.57655118      -0.04460682      -2.16249125      -7.33168242       0.87729632
 C              9.58788435       4.04424081       5.41550362       3.98846446       0.31923523       1.52334160      -5.92879107       0.87086492
 C              1.42339091       0.01953815       0.31924156       1.28909704      -4.36120065       0.16333432      -6.58714158       0.84330715
 C              0.54525736       3.90748438       4.22460758      -4.70630633      -1.71848897       4.50968047      -6.89217085       0.84545556
 C              0.74330489       5.14092341       1.60433038      -4.68690550       0.20037946       2.84060266      -8.45452500       0.87643887
 C              9.10436165       9.18899132       0.62156136      -2.75283973      -0.42877044       0.15395323      -7.18148190       0.86565981
 C              1.81130384       3.13353086       8.82792858       2.65379629       1.35266655      -0.68416311      -5.73845284       0.89629842
 C              0.94051569       7.46035310       0.83496457       0.46847701       0.65546278      -0.93065016      -6.93119434       0.88281566
 C              2.02306463       5.85919075       9.46064961      -2.97031954       1.70469976       9.06125535      -7.21959660       0.84902935