      50
 Properties=species:S:1:pos:R:3:velocities:R:3:forces:R:3:local_energy:R:1:fix_atoms:S:3 Lattice="9.9905032156        0.0000000000    0.0000000000    0.0000000000    9.9905032156    0.0000000000    0.0000000000    0.0000000000    9.9905032156" temperature=5772.80201438 pressure=39839.26222650 time_step=1.0000 time=1000.000000 energy=-255.463605 energy_soap=-350.80517384  energy_2b=93.72512870 energy_3b=1.61643979 energy_core_pot=0.00000000 energy_vdw=0.00000000 energy_exp=0.00000000 energy_xps=0.00000000 virial="-4.16607620          -3.12413629      2.96701678     -3.12413629     13.04697161      0.52988156      2.96701678      0.52988156     -7.62291621" stress="0.00417797            0.00313305     -0.00297549      0.00313305     -0.01308421     -0.00053139     -0.00297549     -0.00053139      0.00764468" volume=997.153669 step=1000
 H              6.15478596       1.77245008       5.89212930      -0.00467592       0.00099828      -0.03655942       0.36413774      -0.00579417       0.79967247      -2.87788119 F F F
 H              5.49950805       2.12625440       6.00255808      -0.05540200      -0.02102505       0.02858405       0.10882109       0.02404617       0.49170363      -2.73467384 F F F
 H              4.08482775       5.07263041       8.68531408       0.43297543      -0.17225127      -0.05745233       0.92354016       0.55795597      -0.32456137      -0.58338971 F F F
 H              6.08423855       6.26665164       9.62921386      -0.13805992      -0.05497875      -0.05498816       0.96855262      -0.60597811       0.78295730      -2.68052242 F F F
 H              9.51248771       4.95310217       5.52197263       0.02687585      -0.04905080       0.03558208       0.48913266       0.10788486      -1.12616917      -2.98010489 F F F
 H              4.86689080       4.35673195       1.52215048       0.06290684       0.05726206       0.09404446      -1.81923866      -0.20526878       1.98366451      -3.14674427 F F F
 H              9.42117451       4.89330417       6.21139658      -0.08667162      -0.03061009       0.02573979      -0.14623796      -0.10445713       0.86035329      -2.95260471 F F F
 H              3.80695613       4.24227644       4.27771905      -0.03319366       0.06736542      -0.05615915      -0.81405010      -0.48894645       0.18046628      -2.62316031 F F F
 H              5.72247302       1.32907735       2.24693448       0.01287836       0.05783965       0.09880004       0.20182049      -1.25355625      -0.24321903      -3.01467165 F F F
 H              3.12962386       5.20486372       5.96401404      -0.07735042      -0.10822388      -0.07240289      -0.35043695       1.85302365       0.98394692      -2.62656669 F F F
 H              5.75974701       8.63255861       3.64474689      -0.07312754      -0.01585293       0.05667118       0.88525769      -0.17053327       1.06720882      -2.49205372 F F F
 H              1.33002883       0.12153550       7.02791652       0.03121977      -0.00994257       0.02907761      -0.32607332       2.87976949      -2.07810524      -2.83713745 F F F
 H              7.66859177       5.07951860       3.61483058       0.08502285      -0.13988250       0.07875602       2.11351539      -2.54425777       2.01716429      -3.24259325 F F F
 H              9.12016629       0.63501629       1.02731411      -0.05043663      -0.00065752       0.02044364       1.89029634      -0.66456539      -1.56014878      -2.67394225 F F F
 H              5.70271495       2.79891634       1.88662625      -0.00283732       0.13097331      -0.00933233      -0.99646207      -0.44080683       0.84745874      -2.51541552 F F F
 H              7.87231787       9.44408913       2.93661513      -0.05792866       0.09003325       0.04689892       1.27404418       0.79415356      -0.82816571      -2.47364824 F F F
 H              7.50315521       3.85075401       1.26164567       0.04246165      -0.02741001      -0.04596068       0.39248022       0.51920448       0.28641973      -3.03963537 F F F
 H              1.18655677       0.87607042       6.44912518      -0.02345522      -0.04533797      -0.01423975       0.70104255      -2.89468384       1.93322968      -2.73472267 F F F
 H              5.28243819       1.85367059       4.10119323      -0.00344284      -0.06078874       0.01725753      -0.51226226      -0.32825869      -2.83452567      -2.67891558 F F F
 H              6.80809393       6.32020156       9.94222712       0.08521699      -0.05083870       0.03013319      -1.35327484      -0.76511724       0.22600876      -2.83978566 F F F
 H              2.05159312       9.39558283       9.59012258       0.00222862       0.01132836       0.06089769      -1.33580017       0.52026329      -0.50875445      -3.02955658 F F F
 H              0.44759563       9.09926268       8.96996203       0.04161761      -0.01312531      -0.03294728      -0.26335235      -0.33817282      -0.11623527      -3.52379395 F F F
 H              9.61751831       0.63105145       8.14214643       0.02678222      -0.00311406      -0.06107641       0.46221559      -0.17351132       1.08902880      -3.33137180 F F F
 H              3.59557122       6.84704752       5.05469444      -0.10309463       0.09218477      -0.05251023      -1.52772800       0.19508878       0.69088426      -3.36984103 F F F
 H              8.06591174       4.08168920       1.75845476      -0.06042547      -0.08764255       0.03999232      -0.49771240       0.04370990      -0.42925441      -3.01741592 F F F
 C              3.43016391       2.40085545       3.13605679       0.00947987       0.02122002      -0.00154547       0.83329877      -5.67713854      -2.87299266      -6.39676814 F F F
 C              4.86339801       1.80543291       2.70385305       0.00424803       0.01264646       0.00355393       0.61025711       1.81571196       2.24045939      -8.07660724 F F F
 C              3.62713477       9.91872917       1.76208432       0.00213467       0.01025981       0.00158214      -0.83517590       1.01082612      -2.81066527      -8.40546448 F F F
 C              7.23829750       8.81333824       2.31101874       0.01399052       0.01285004       0.00669050       2.67211621       3.91644612      -1.78468300      -9.31678197 F F F
 C              8.88181532       0.10145597       0.05589170      -0.02985874      -0.01674078      -0.02331824       1.58524254       1.90988719       2.76769251      -7.25529320 F F F
 C              3.93368937       9.00409538       0.49711405       0.00399031      -0.01400449      -0.03988095       0.12871243       2.20118938       2.91704513      -7.72996466 F F F
 C              3.48291635       1.27365654       2.17566118      -0.00621191      -0.00633671       0.00374277       0.85042136      -2.83577558      -0.48090856      -6.79029628 F F F
 C              2.09749917       5.50163769       4.42499745       0.02837001      -0.01106615      -0.01699512      -0.83018487      -0.32722192      -1.10292875      -6.59837312 F F F
 C              7.95107147       9.10892626       8.41179388       0.01926858      -0.01182032      -0.02374495      -1.37874526      -1.11960800      -0.31589354      -9.62313184 F F F
 C              6.54862202       6.85444283       3.08928679      -0.01168635       0.01353609      -0.01950998       0.40035325      -5.04273223      -0.24734833      -7.00960706 F F F
 C              7.54250379       0.07947043       0.09392797       0.01571097      -0.03610438       0.03631099      -1.91966699      -1.43173297      -0.91102210      -7.93950203 F F F
 C              6.75232173       8.39918776       8.16307537       0.00614688       0.00420841      -0.00859733       0.50847588      -0.64689210       0.29636903      -5.10037666 F F F
 C              6.48957810       7.07152287       7.90485936       0.01490299       0.00511039       0.01103786       0.47334117       0.97083778      -1.69002774      -8.05073767 F F F
 C              3.84207929       4.09916953       2.23025149      -0.00266604      -0.00043958       0.02173419      -0.60319223      -0.27644245      -0.94798190      -7.68351564 F F F
 C              2.96437685       8.94578953       9.31227736      -0.00203089       0.00319709       0.00803049       4.65047837      -1.40546281       1.86999103      -6.49398117 F F F
 C              4.06881220       8.23600606       8.68741363       0.00018433      -0.00231738       0.01254596      -0.74769421       1.25018567      -1.04770556      -7.49128284 F F F
 C              9.65066181       9.82950658       8.92710367      -0.01118881       0.01540911      -0.00882155      -1.77499060       0.80648645      -1.30549993      -7.28848843 F F F
 C              6.21132557       6.01123742       7.25743449      -0.01457029      -0.00439147      -0.00400651      -0.67493060       0.01981303       0.72970560      -6.18475547 F F F
 C              7.03242835       5.68930438       3.10674442       0.00113669      -0.02339161       0.00234559      -1.40011114       0.32699074      -1.62090362      -7.65847928 F F F
 C              5.43072991       8.75866891       0.26203502      -0.03707841       0.01684860      -0.00338912       0.64513189       1.28865636       0.11811522      -9.05792127 F F F
 C              2.65447017       6.25662927       5.35782345       0.02033520       0.03069812       0.01286146       2.89880865      -2.32451864      -0.45469273      -6.02547674 F F F
 C              6.76939337       9.37557268       1.03732962       0.00427671       0.00867356      -0.00392347      -3.14913459      -2.09004668      -1.27376488      -7.78927936 F F F
 C              3.29607044       3.56632975       3.55711285      -0.01360717      -0.00394660      -0.02046734       1.11520251       7.80277295       0.57164029      -6.28138799 F F F
 C              5.44855853       8.82532160       8.53350674       0.00237546       0.00610787       0.00323537      -0.46511856      -0.13062170       2.09115602      -8.43794307 F F F
 C              6.70543080       8.10095976       3.33858647      -0.02438741       0.00198168       0.03629543      -4.42512283       3.47719775       1.07381595      -6.75804105 F F F
