      50
 Properties=species:S:1:pos:R:3:velocities:R:3:forces:R:3:local_energy:R:1:fix_atoms:S:3 Lattice="9.9905032156        0.0000000000    0.0000000000    0.0000000000    9.9905032156    0.0000000000    0.0000000000    0.0000000000    9.9905032156" temperature=4933.12827238 pressure=15997.39438964 time_step=0.5000 time=0.000000 energy=-216.611688 energy_soap=-225.58935873  energy_2b=4.59922445 energy_3b=4.37844619 energy_core_pot=0.00000000 energy_vdw=0.00000000 energy_exp=0.00000000 energy_xps=0.00000000 virial="-6.54899908           2.89036635      4.14582572      2.89036635    -10.91668857      2.08864746      4.14582572      2.08864746    -15.15548919" stress="0.00656769           -0.00289862     -0.00415766     -0.00289862      0.01094785     -0.00209461     -0.00415766     -0.00209461      0.01519875" volume=997.153669 step=0
 H              2.36590211       9.47727989       7.45353503      -0.01355708       0.00455588       0.11242738       0.19863189      -0.93150985      -0.84949324      -2.90813610 F F F
 H              5.54099381       1.05590030       0.57707063      -0.07491377       0.02739626       0.02071181      -3.46796546       1.17706170       0.29513224      -2.56373806 F F F
 H              4.87116567       6.08945367       0.55408390      -0.03162847       0.12861415       0.01410670       1.11219675       2.73641244       0.48744991      -1.94338856 F F F
 H              4.85748004       4.24542461       3.97346894      -0.03140065       0.06151665       0.08530518      -0.37930098       0.04043442      -0.34350595      -2.98583389 F F F
 H              7.57551864       5.76710979       8.69393550       0.08288096      -0.01552769       0.07450207      -1.29660510       0.00954087       1.26962812      -0.81344874 F F F
 H              9.97620803       4.60123978       1.96895319       0.02599963       0.05218656      -0.00844804       0.38167254      -0.66084164      -1.59153333      -1.34729328 F F F
 H              2.90658497       2.35080425       8.03650369      -0.02811272      -0.04584149      -0.13907645      -1.12553267      -0.16569042      -0.74924712      -1.81452975 F F F
 H              3.96215988       9.24213121       0.37444657       0.04502330       0.02518361      -0.03702661       0.01135464      -0.21989026      -0.13132003      -1.04156323 F F F
 H              5.56723542       1.89481462       7.44188859       0.02766959       0.01384347      -0.10182017      -2.11226772       1.87739208       2.90081450      -2.44543525 F F F
 H              4.94516982       7.76076052       9.05670222       0.10550592       0.03390965      -0.02134007       1.18885860       1.32648005       0.00248224      -1.40637592 F F F
 H              0.09348458       9.90385258       8.97946842      -0.01322448       0.06490966       0.10228136      -1.11441383       3.29565068       0.84180050      -2.51620460 F F F
 H              1.10545213       2.71167505       8.17650279      -0.11229815       0.01246697       0.08768311       0.18310104       0.06789807      -0.18190425      -1.82505875 F F F
 H              6.24597436       0.95437821       0.58683204       0.05784132       0.09557975       0.06537722       3.67317298      -0.04981732       0.11760293      -2.48717067 F F F
 H              4.27659596       4.21010383       3.48903060       0.05327239       0.06141989      -0.07617920       0.39451970       0.00403379       0.38684313      -2.97410699 F F F
 H              0.45595497       8.55610552       7.89876265       0.17711156      -0.13118636      -0.02272219       0.16101765      -0.61973171      -0.57314588      -2.62322556 F F F
 H              5.85146193       0.15100994       3.19230837      -0.01175859      -0.03346115      -0.00308438      -3.12039706      -6.62334397      -0.30614573      -2.70670187 F F F
 H              9.74728708       0.97405955       9.27051375       0.01662725      -0.01950024      -0.02893201       1.71868178      -2.06711958      -0.32760210      -2.29498136 F F F
 H              6.06887361       0.71784444       3.26817608       0.07177323       0.03125598      -0.05261423       1.95456139       6.80993783       1.57338287      -2.26376934 F F F
 H              1.62797865       3.01857723       0.53458216       0.02077565      -0.03661061      -0.02106209       2.90054937      -0.97383807       0.17071299      -1.69157702 F F F
 H              2.14550094       2.49606912       1.16873538       0.03543094      -0.01190122       0.01631857       1.05493940      -0.42423331       0.31250463      -1.88353279 F F F
 H              8.18880617       9.08206079       3.68134247      -0.09319624      -0.10220401      -0.14360041       0.52590776      -0.35695270       0.76091571      -2.56557733 F F F
 H              7.82898833       0.49849134       2.39654424      -0.00732552      -0.01207171       0.05308115       1.17089393      -1.23114237      -2.83879530      -2.19141193 F F F
 H              7.90966268       1.75906930       5.48898386       0.01503551       0.00971401      -0.02055603      -0.82894913      -1.70383839       0.63136945      -1.23246163 F F F
 H              4.98059732       2.44047336       8.22059044       0.02686473      -0.01142314       0.07411863       1.75574416      -2.06388960      -2.72763211      -2.50402656 F F F
 H              7.95887271       5.56682517       0.30201255       0.04250210       0.15110976       0.05426098      -0.52149521       2.38881175      -0.76778071      -2.15831058 F F F
 H              1.61270085       2.66980424       4.91072864      -0.10751887       0.05423560      -0.02245680      -0.00563205       0.36003385       1.74851992      -0.88293297 F F F
 H              5.64170174       9.93104886       8.29946347      -0.15019037      -0.00181667      -0.05322794       0.00675661       0.59045026       0.78836775      -1.60001016 F F F
 H              1.40057039       5.94354098       6.53015543      -0.06033282       0.01085159       0.11399074      -2.01781935       0.32690261       0.85562987      -2.65701660 F F F
 H              8.19193703       9.86040064       6.56723137      -0.02968854      -0.00697770      -0.02041346      -0.24430001       1.03108113      -2.27726267      -2.72079379 F F F
 H              2.35757002       0.06593118       7.86839351      -0.04771530       0.02133914       0.05854250      -0.08894054       1.72119179       0.61715129      -2.94431462 F F F
 C              8.06359808       9.92319620       4.31817205      -0.00258500       0.02968457      -0.01125572      -1.95484868      -1.68182365      -3.65997160      -8.91134245 F F F
 C              0.61010625       2.70670709       9.98333224       0.01357843      -0.04602202      -0.01226070      -2.60126146       2.14319656      -1.24614355      -7.61558543 F F F
 C              5.52868858       8.74827340       9.75176452      -0.01425882       0.01212228      -0.02489074      -2.22029324     -12.48647763       2.20980322      -7.90454446 F F F
 C              0.43180308       6.26070527       7.16914758      -0.00134945       0.01379833      -0.02002506       0.58107012       1.47565208      -0.28153325      -6.45750370 F F F
 C              5.58204224       9.90291971       9.83041226      -0.01476871       0.00941023       0.00947476       0.73290951       7.24223567      -2.07374896      -7.98526680 F F F
 C              0.11107637       3.65541633       0.82864290       0.00932528       0.00689753       0.02713659      -1.75102838      -1.48605702       1.64757042      -6.94070927 F F F
 C              0.44197095       7.48415000       7.76244564       0.00215741      -0.01405433       0.00554064      -2.77576349      -1.75066452       0.17408721      -7.59696533 F F F
 C              0.68034433       2.15982763       6.01636889      -0.01690601       0.00503443      -0.02181971       0.14074612      -2.15208701      -1.24731778      -6.95406210 F F F
 C              5.38624440       7.53613410       0.77111296      -0.00181856       0.01952806      -0.01302527       0.51381154      -0.47596708      -2.57454587      -7.86392912 F F F
 C              0.07628168       2.90392008       2.36351493       0.00885837      -0.01625422       0.00750821      -1.50846727       0.79208530      -0.10399868      -9.49291556 F F F
 C              2.00369394       1.56503191       3.51271139      -0.00787980       0.00015216       0.00184715       4.35875986       0.49016147       1.48213226      -6.96192022 F F F
 C              9.70259908       1.29013666       5.36478955      -0.00037098      -0.03715666      -0.01305276       1.57144445       1.09358569       0.53735581      -9.52472255 F F F
 C              8.21086553       0.40229896       5.47645222      -0.01764427      -0.02992916      -0.00834174       2.08467768       3.59612890       3.13874108      -7.46588389 F F F
 C              7.86034830       7.34945392       8.28481379       0.01931082      -0.03769390       0.02707232       2.23202869      -1.37556170       0.43203178      -6.36956778 F F F
 C              9.51708362       2.24267117       3.46399873       0.00677185       0.00831578       0.01297416      -1.71661185      -2.37567142      -2.47556897      -5.90987378 F F F
 C              8.04348285       1.42394783       2.80903460      -0.00359884       0.01221364       0.00698322       2.86053697       1.83887201       4.28508568      -6.77629891 F F F
 C              1.21956995       2.12149978       7.20463034       0.00464214       0.01289045      -0.02771604       0.92691799       0.21099071       1.09828931      -8.83901401 F F F
 C              7.59076976       6.79998618       9.51874814       0.03115348      -0.00450139       0.02237047      -1.34997736      -2.52648309       0.24561886      -7.85604981 F F F
 C              0.82113221       1.25447938       3.30671507      -0.00707007      -0.00354750       0.01962937      -5.51787091      -0.27213645      -0.49489423      -6.41205224 F F F
 C              9.03841679       6.68640267       7.58083642      -0.00682845       0.02281846      -0.00161699       3.32427866       2.02854706      -1.18793236      -8.78055277 F F F
      50
 Properties=species:S:1:pos:R:3:velocities:R:3:forces:R:3:local_energy:R:1:fix_atoms:S:3 Lattice="9.9905032156        0.0000000000    0.0000000000    0.0000000000    9.9905032156    0.0000000000    0.0000000000    0.0000000000    9.9905032156" temperature=5260.24584771 pressure=-1485.92123291 time_step=0.5000 time=10.000000 energy=-221.499347 energy_soap=-232.02580416  energy_2b=7.05571869 energy_3b=3.47073857 energy_core_pot=0.00000000 energy_vdw=0.00000000 energy_exp=0.00000000 energy_xps=0.00000000 virial="-20.27628757         -1.24125106      4.30757841     -1.24125106    -26.37848195     -9.10235465      4.30757841     -9.10235465    -22.75366398" stress="0.02033417            0.00124479     -0.00431987      0.00124479      0.02645378      0.00912834     -0.00431987      0.00912834      0.02281861" volume=997.153669 step=20
 H              2.38332457       9.75536937       8.50834880       0.00454895       0.06850352       0.10870394       0.03250140      -0.57823724      -0.11951938      -2.80179557 F F F
 H              4.91205703       0.92959596       0.45038071      -0.01601903      -0.06998149      -0.05318379       0.33113524       1.04339794       0.68237781      -3.02567886 F F F
 H              4.19345219       7.08482431       0.87682737      -0.09400906       0.02518584       0.03655927       2.69870578       1.19966702      -0.61922041      -1.95181526 F F F
 H              4.30465649       4.83348410       3.93616980      -0.04243533       0.05671674      -0.05795297       1.93132028       0.06667262      -0.77518195      -2.94609611 F F F
 H              7.83389005       5.46424736       9.88688679      -0.01158511      -0.00308814       0.17701683      -0.26221496       2.03640045       1.17635382      -2.55526112 F F F
 H              0.44085395       4.67941043       0.99753098       0.05241883      -0.02906617      -0.16193375      -0.17345075      -0.69975162      -0.13072645      -2.90230726 F F F
 H              2.12518869       1.90754918       6.40576783       0.03787683      -0.06731883      -0.16574763       2.79290947      -0.54865650       0.58054248      -2.01442660 F F F
 H              4.43333635       9.50019133       9.85415355       0.03841127       0.02269083      -0.06920541      -1.53507145      -0.55888107      -0.47261458      -1.02518278 F F F
 H              5.23159048       2.55325259       7.50307818      -0.03098504       0.05966178       0.02957957       2.28031899      -3.34189978       1.92178929      -2.43245033 F F F
 H              6.19839510       8.47959507       8.47234773       0.08613465       0.09099804      -0.02986945      -2.03014818      -0.07069566       2.49465789      -2.05333918 F F F
 H              9.90981825       0.50747222       0.16822367      -0.00705664       0.07502357       0.06368186       0.24041967       1.41385508      -1.57925550      -1.99062336 F F F
 H              0.25837687       2.86930213       9.03421398      -0.05842044       0.05472452       0.10023647      -0.69402535       1.98851035      -2.34113299      -2.46319558 F F F
 H              6.84258770       1.81641507       1.22492015       0.04301036       0.06594841       0.07013223       0.20783081      -0.43172117       0.53685863      -1.41020219 F F F
 H              5.06410734       4.86227323       3.62141296       0.06646313       0.06485253       0.06820203      -1.92206920      -0.08511962       0.81347475      -2.94440841 F F F
 H              1.99635362       7.71664381       7.78550108       0.05219394      -0.10225119      -0.00118679      -2.91767291      -0.35903294       0.14161553      -1.63846077 F F F
 H              5.81241316       0.32542181       3.22238438      -0.02040240       0.03525730       0.02248802      -6.55671954      -8.74740816       3.49853985      -2.45906820 F F F
 H              0.08096056       0.92949270       8.98241503       0.02948034      -0.00931763       0.04176072      -0.17359523      -0.04310371       2.29623292      -1.92436768 F F F
 H              6.11713778       0.77303768       3.05835235      -0.03255149       0.01774459      -0.01757362       5.36011695       9.40596110      -3.31881383      -2.04897858 F F F
 H              2.56371935       2.10897793       0.58215271       0.09651140      -0.11389435       0.02710826      -0.71058955      -0.11534599      -0.68722647      -2.74777409 F F F
 H              2.70221924       2.40893244       1.21654914       0.05317387      -0.00027326      -0.00229127      -0.31511143       0.35606800       0.90881212      -2.95493761 F F F
 H              7.48755959       8.83767252       3.44604318      -0.03361807       0.06430413       0.08785555       1.54316819       2.30311530       2.06693787      -2.13104193 F F F
 H              8.47570054       0.66696382       2.14640443       0.10819063       0.10083056      -0.04508960      -0.78331006       1.57114965      -0.03575672      -1.70474393 F F F
 H              7.57425970       1.25239315       5.69029956      -0.07312277      -0.10649753       0.04832386      -0.05771475      -0.37236617      -0.07871388      -2.32057250 F F F
 H              5.77870005       1.73858381       7.97680757       0.07443481      -0.07151183      -0.03321892      -2.46114670       2.74176162      -1.43720725      -2.55102959 F F F
 H              8.23795696       7.64468480       0.91753044      -0.00782435       0.18286456       0.01383497      -1.21096388      -2.52906332      -2.57327051      -2.01026480 F F F
 H              0.41202126       3.31847884       5.68295176      -0.14150319       0.05575457       0.09567372      -0.63082423      -1.11648125      -1.18087885      -2.18988642 F F F
 H              4.20477054       0.05955208       8.24877925      -0.12481235       0.01381698       0.03415789       0.88173058       0.22399789       0.43266166      -1.82654246 F F F
 H              1.34351140       5.36257125       7.10962956      -0.04058110      -0.05691964       0.01251668      -2.27622621       1.73312370      -0.59175956      -2.05176523 F F F
 H              7.74239292       9.65030326       6.40666088      -0.03264569      -0.05511106      -0.01679202       1.41410704       0.11387636      -2.45831588      -2.93257588 F F F
 H              1.92910556       0.38160226       8.42159153      -0.03621354       0.01314460       0.04401411      -0.28032192       0.75587091      -0.13015455      -2.99691942 F F F
 C              7.96958217       0.06586809       4.01095815      -0.01541682      -0.00096099      -0.04001558      -1.90947329      -2.47991746      -0.00474843      -8.84755907 F F F
 C              0.65986720       2.39594298       9.84737751      -0.00190841      -0.01814355      -0.00972716      -0.47672279       0.36916915       4.36122859      -7.60534695 F F F
 C              5.36114225       8.62738117       9.60609743      -0.01217491      -0.01316852      -0.00920101       2.70152369       3.94612468      -2.25570790      -7.48282454 F F F
 C              0.33389597       6.39747223       6.97922230      -0.01036071      -0.00152595      -0.02526550       1.41811132      -4.21343250      -1.55161660      -7.57434645 F F F
 C              5.42591527       0.17326875       9.89563195      -0.01759819       0.02972888       0.00424256       0.86747605      -1.21038012      -1.97160259      -7.89228230 F F F
 C              0.18549702       3.60885943       1.16076274       0.01109430      -0.02228897       0.03707376       1.74635857      -5.42697801       0.20131736      -7.30313102 F F F
 C              0.39852177       7.34297216       7.84372455       0.00240908       0.00212586       0.01601605       3.77109618       3.26076091       1.46544593      -6.91967780 F F F
 C              0.53560903       2.16672915       5.77966952      -0.01473775      -0.00099961      -0.01906057      -1.26012714       0.48633887       2.57994280      -7.77783575 F F F
 C              5.45393603       7.81542608       0.57150150       0.01314078       0.03371142      -0.02382115      -1.44517878      -4.31407010       1.59661263      -8.36667474 F F F
 C              0.13033712       2.78719816       2.38106127       0.00468930      -0.00424199      -0.00863308       0.33023132       2.81439895      -3.43575967      -8.92840432 F F F
 C              2.01202991       1.55857415       3.55242219      -0.00298532      -0.00278265       0.00440942      -2.87870431      -0.63131629       0.10649374      -6.30684517 F F F
 C              9.78243539       0.96708760       5.27026586       0.01653101      -0.02675253      -0.00499892       1.13364483       1.59893150       1.03906249      -8.70737459 F F F
 C              8.11247759       0.27962514       5.41049404      -0.00485750       0.00510868      -0.01199274       0.12334577       1.74413217      -0.33504167      -7.57144622 F F F
 C              8.11856212       6.97037478       8.52379810       0.02965965      -0.03417566       0.01829584       0.81186327       0.58521142      -0.56555702      -8.05393494 F F F
 C              9.50458387       2.24691302       3.48058318      -0.00923057      -0.00553664      -0.00929864      -1.80267592      -0.63813768      -2.09122069      -5.22087457 F F F
 C              8.07850803       1.52891328       2.98121235       0.00925184       0.00180527       0.01997999       1.92686756      -2.98628656      -0.71295529      -8.62358542 F F F
 C              1.28780940       2.25456866       6.99359434      -0.00309746       0.01133707      -0.01811182      -1.89100465      -1.25560606      -0.69346506      -7.59031732 F F F
 C              7.83037191       6.68075674       9.77446582       0.01820071      -0.01613045       0.03237649      -0.65822460       0.29512093       2.13376974      -8.14920152 F F F
 C              0.63050796       1.22627510       3.48962280      -0.01793110       0.00056668       0.01897491       2.56317225       1.00672872       0.71563647      -6.83016828 F F F
 C              9.08140427       6.97166275       7.52353812       0.01044665       0.03013215      -0.00721944       0.20533259      -0.30645630       0.39705931      -6.74180423 F F F
      50
 Properties=species:S:1:pos:R:3:velocities:R:3:forces:R:3:local_energy:R:1:fix_atoms:S:3 Lattice="9.9905032156        0.0000000000    0.0000000000    0.0000000000    9.9905032156    0.0000000000    0.0000000000    0.0000000000    9.9905032156" temperature=4774.89456762 pressure=26753.39745458 time_step=0.5000 time=20.000000 energy=-220.118246 energy_soap=-217.89952708  energy_2b=-6.64714282 energy_3b=4.42842408 energy_core_pot=0.00000000 energy_vdw=0.00000000 energy_exp=0.00000000 energy_xps=0.00000000 virial="12.33203774           4.70052485      5.47695323      4.70052485    -11.85179953     -3.59896703      5.47695323     -3.59896703    -11.01421147" stress="-0.01236724          -0.00471394     -0.00549259     -0.00471394      0.01188563      0.00360924     -0.00549259      0.00360924      0.01104565" volume=997.153669 step=40
 H              2.15891263       0.46959542       9.46131828      -0.05745796       0.09015153       0.06225708      -0.15008066       0.01765504      -0.98004077      -2.47446803 F F F
 H              4.63913050       1.10285908       0.65743902       0.04329970      -0.03040075      -0.00329869       2.06810434      -2.52013763      -1.67909869      -2.84986923 F F F
 H              4.54928710       7.75489781       0.90954598       0.14934961       0.08470018      -0.01409519      -0.40821546      -0.72612717       1.35845220      -2.54293001 F F F
 H              4.80328964       5.43992128       3.39803556       0.08374464       0.06225862      -0.00222275      -0.01507908       0.01197443       3.09351073      -2.86824014 F F F
 H              7.77512110       6.48273562       1.28045642       0.01105664       0.15891334       0.03362369       0.52607783      -0.33948586      -2.63291432      -2.94517312 F F F
 H              0.72278145       3.75577086       0.36939978       0.02971994      -0.10161039       0.07157860       1.14724947       1.94883750       2.13467846      -1.55613673 F F F
 H              2.57968908       1.52355773       5.29484977       0.04345760      -0.01056760      -0.09540924      -0.00423317       0.17277108      -1.08823902      -1.33130543 F F F
 H              4.33245424       9.22510775       8.90580735      -0.00829917      -0.09498025      -0.10413032       0.72106294      -2.14686985       0.23184875      -1.84506853 F F F
 H              5.60086314       2.14317340       8.37415092       0.03209453      -0.05677200       0.09786166       0.25861219      -2.32291434      -3.52595105      -2.37553138 F F F
 H              6.15271239       8.94464635       8.95091095      -0.02224260      -0.02355249       0.03947685       5.42934932      -0.72957119      -4.13337041      -1.25426676 F F F
 H              9.86919756       1.66378522       0.56909919      -0.01885573       0.14155484       0.07950025      -0.15233867      -0.00773487       0.44005768      -1.43245782 F F F
 H              9.77370992       3.04233920       9.44498398      -0.00806961      -0.09961388      -0.00365308       0.24930825      -1.66883638      -2.11279033      -2.25437582 F F F
 H              7.52386201       2.25280027       2.38099632       0.08161656       0.02219863       0.17667444      -0.76521864      -0.67132005       1.57790039      -1.97471915 F F F
 H              4.80750422       5.45334108       4.27543104      -0.06015753       0.05551953       0.01465867      -0.01460289      -0.04691131      -3.04646737      -2.87706726 F F F
 H              1.39320851       6.91766965       7.94980313      -0.07743343      -0.04552015       0.05205612       5.58842044      -1.28089988       1.30758018      -1.40025423 F F F
 H              5.45351574       0.70467997       3.37608298      -0.03644770       0.02259199       0.05940145      -1.79264553      -4.87432986       6.14803641      -2.73674999 F F F
 H              0.17878916       1.16955370       9.84375786       0.00882004       0.02434653       0.02789381       0.10678203      -1.23099034      -1.70784932      -2.70528983 F F F
 H              5.59941682       1.06947921       2.92638066      -0.06262242       0.04566230      -0.05799444       2.01455683       4.84734573      -6.12174535      -2.70196124 F F F
 H              3.16481492       1.42226248       1.09451781       0.01749738      -0.03749746       0.07247880      -0.84886318       0.44799824       0.46546493      -2.33889736 F F F
 H              2.84118962       2.14312338       1.05947700      -0.03601660      -0.02891573      -0.01747725      -0.96820385       0.33067521       0.41065665      -3.14550400 F F F
 H              7.12034961       9.08733963       4.13103156      -0.06536418      -0.02836673      -0.03688944       0.50449134       1.65099478      -2.71537991      -1.68720598 F F F
 H              8.39190563       1.52781286       1.85933976      -0.11982164       0.01688324       0.00266015      -1.39101027      -2.06791128       0.25892167      -1.21937772 F F F
 H              7.14089444       0.67822212       5.79292567       0.02557730      -0.01014521      -0.03942902       1.36608628       0.73252488      -0.34326888      -3.00316320 F F F
 H              5.72290866       1.71699109       7.35538011      -0.01063148      -0.01640189      -0.04216971      -0.41300728       1.42575156       4.14460062      -2.48435974 F F F
 H              7.78101369       8.19875801       0.27708695      -0.05333694      -0.05379852      -0.09926666       0.46598346      -1.54340976       0.00070303      -1.57290906 F F F
 H              9.39408494       2.88150007       6.15742516      -0.02036293      -0.13580275      -0.00774172       1.55492618      -1.17672971      -1.46568584      -2.09165569 F F F
 H              3.37754267       0.38038130       8.41565962      -0.03954872       0.04543571      -0.00712484       1.09814161       0.04994394      -0.13236541      -2.18801288 F F F
 H              0.16784875       5.28056560       6.91478357      -0.13379044      -0.08719883      -0.03324889       0.24230585      -1.37539229      -0.10773124      -2.68396045 F F F
 H              8.25349260       9.19780634       5.51978883       0.12593365      -0.03742630      -0.07640210       0.63687870       1.08043492       1.35022330      -2.31395038 F F F
 H              1.70012703       0.61173558       8.79368883      -0.00660372       0.02101204       0.04523451       0.08745273      -0.03887564       0.15463193      -2.44528867 F F F
 C              7.81408947       0.17143897       3.70488317      -0.01419271       0.02567685      -0.01807137      -1.08411374       0.42344270       3.48347176      -8.29781302 F F F
 C              0.60649857       2.26057270       9.81467410      -0.01165216      -0.00498519      -0.00170504      -2.02706480       0.88065737       0.00118179      -7.50940458 F F F
 C              5.33278784       8.78147455       9.37345801       0.00144441       0.04112355      -0.02492666      -4.56782825       5.08308380       5.67458720      -8.05544045 F F F
 C              0.25149160       6.32956469       6.75373031      -0.01277635       0.00406629      -0.01607053      -1.94623791       3.96339782       2.51575999      -8.15332703 F F F
 C              5.31640301       0.36216110       9.83868275      -0.01240097       0.01621528      -0.00716403      -1.18470891      -0.30881948       0.25143349      -8.03386615 F F F
 C              0.39608205       3.37359921       1.33081265       0.03444377      -0.00807954      -0.02552739       2.59451229       2.53403991      -6.08863568      -8.75830212 F F F
 C              0.54572758       7.38825357       7.97442547       0.01845872       0.00065047       0.00394998      -5.50317417      -0.73450030      -3.86769791      -7.24982466 F F F
 C              0.33876734       2.18776243       5.73356460      -0.02676493       0.00351658       0.01013261      -2.53302545      -0.28031712       3.13212700      -6.82755885 F F F
 C              5.53760545       7.91748210       0.49718032       0.00028468      -0.00220208      -0.00049359      -0.97768626       1.22631904      -2.97494738      -7.86990656 F F F
 C              0.18794561       2.78569030       2.32433424       0.00428802      -0.00854347       0.02090725      -0.14544922      -0.40186174       5.22916585      -8.18514737 F F F
 C              1.87320093       1.50452216       3.60352382      -0.02038399      -0.00790609       0.00744428       0.65163940      -0.52552865       1.46759426      -7.39548259 F F F
 C              9.93414104       0.77303964       5.25443711       0.01249815      -0.01194040       0.00071610      -0.20659646       1.84855959       0.07199003      -8.24229077 F F F
 C              8.07706301       0.31442467       5.26464486      -0.00378092      -0.00017480      -0.01723550       0.39786913      -2.58824466      -1.13939348      -8.53745489 F F F
 C              8.42460667       6.64297525       8.76049490       0.03037203      -0.03108289       0.03233480       0.09855621       0.63460550       1.88864710      -8.36726647 F F F
 C              9.36211509       2.18237804       3.35830225      -0.01587448      -0.00709551      -0.01047065       1.51026345       0.12038925       1.52710795      -6.37930644 F F F
 C              8.19794371       1.42020820       3.10329525       0.00621820      -0.01849019      -0.00055830      -3.73629358       0.33005921      -4.59893285      -8.72849553 F F F
 C              1.24029852       2.30419357       6.73549761      -0.00661498      -0.00000980      -0.03150150       0.09767997      -0.73036119      -0.21403282      -7.08891653 F F F