      50
 Properties=species:S:1:pos:R:3:velocities:R:3:forces:R:3:local_energy:R:1:fix_atoms:S:3 Lattice="9.9905032156        0.0000000000    0.0000000000    0.0000000000    9.9905032156    0.0000000000    0.0000000000    0.0000000000    9.9905032156" temperature=4899.52803430 pressure=-10505.19541390 time_step=0.5000 time=0.000000 energy=-208.429531 energy_soap=-214.74957327  energy_2b=2.94316488 energy_3b=3.37687756 energy_core_pot=0.00000000 energy_vdw=0.00000000 energy_exp=0.00000000 energy_xps=0.00000000 virial="-23.60694040          0.85248066     -2.39400472      0.85248066    -27.30506948     10.36297810     -2.39400472     10.36297810    -30.76713488" stress="0.02367433           -0.00085491      0.00240084     -0.00085491      0.02738301     -0.01039256      0.00240084     -0.01039256      0.03085496" volume=997.153669 step=0
 H              2.88975595       6.03845571       4.90146853      -0.12332743      -0.00138254       0.01441883      -0.45365854       0.05785882       0.20239416      -3.04912687 F F F
 H              3.45245700       6.70458062       1.79827869       0.04715611       0.02430247       0.03270042       0.66927937      -1.91181759       1.25480432      -2.92274381 F F F
 H              0.42622840       6.47002538       0.40536342       0.05084801       0.02119552      -0.05825660      -0.80631406       2.33534584      -2.57880880      -1.94977333 F F F
 H              7.76222049       6.10210059       3.62853163       0.02818551      -0.03610865      -0.07447694      -1.89874261      -1.16077091       0.62635105      -1.92167923 F F F
 H              0.88617361       6.30729099       5.66021537       0.12363916      -0.09966029       0.04000499      -1.31386647      -1.22778543      -1.30610365      -1.55441936 F F F
 H              3.52080672       3.76314117       4.08011563      -0.00599718       0.03017003      -0.01326689      -0.19469189      -0.73813423       0.04362139      -1.26155544 F F F
 H              5.94490298       5.18463356       9.83358243      -0.15489368       0.06041405      -0.07899874       1.10571451       0.89571441       0.30291804      -2.50772468 F F F
 H              2.32945071       6.64405114       9.30490038      -0.05735384      -0.01161871       0.05096473       2.10981030       0.47761541      -1.21089724      -2.75865182 F F F
 H              7.24563506       0.10153857       6.48353793       0.04000530       0.14915781       0.02562806       6.33280007      -5.66823495       3.34191196      -1.80695735 F F F
 H              3.58058095       9.18783354       7.85829773      -0.01645406       0.03602316       0.00307369       1.06878801       2.41822505      -1.81560659      -2.76212066 F F F
 H              3.58261563       6.02773339       2.34512088       0.07549423       0.00339954       0.14345708       0.18430327       2.01921172      -2.29164615      -2.76629711 F F F
 H              6.29028343       9.16143494       8.50281302      -0.09215285       0.08969650       0.01790300       2.35154444       0.09901086       1.42787207      -2.71222917 F F F
 H              6.77780852       9.06368786       0.60050928       0.05286961       0.04732272       0.01180178       0.66274243      -0.79721415       0.45517569      -3.18411262 F F F
 H              3.04054029       0.61871133       4.98849397       0.15693848       0.03724316       0.04850400       0.11456300      -1.02048186      -0.90273589      -0.75011167 F F F
 H              7.60374878       9.13597140       3.54402772       0.04359468      -0.04303244       0.05540077       2.14572029      -3.64232550      -0.55770814      -2.24012899 F F F
 H              3.16397209       5.68528002       4.25641532      -0.05910259       0.02608708      -0.00629395      -0.09699584       0.05547970       0.61669911      -2.76836299 F F F
 H              9.79377734       2.87927645       5.67667759      -0.00697734       0.01275132       0.03890289      -0.86702229      -0.58260860      -1.43261150      -0.58034502 F F F
 H              9.90605170       5.85926663       4.29397220      -0.00127127       0.03641782      -0.08576018       0.67965229       0.63838576       1.83672982      -1.20029886 F F F
 H              5.30977515       9.70613046       5.61775841       0.03864833      -0.00731926      -0.05923316       0.88656879      -0.63616715      -0.84146088      -2.28771186 F F F
 H              5.35429327       9.02529763       5.14274397       0.00325049       0.12243493       0.03852883      -0.22373391       1.06096711       0.34096701      -2.81386969 F F F
 H              3.91998734       9.91578177       7.30836657       0.05940365      -0.05157966      -0.01757500      -1.18052617      -2.55237519       2.00342302      -2.79256101 F F F
 H              8.04738484       4.46455614       6.85548573       0.01721557      -0.04430147       0.03384113       1.05777485      -1.65000446       0.65975840      -2.09744095 F F F
 H              3.09726999       6.71059527       8.94612756      -0.07046133       0.20770222      -0.01027803      -2.21457189      -0.09235906       0.94833276      -2.93299893 F F F
 H              0.26281994       1.82168383       6.26657326      -0.09645470      -0.01575750      -0.01381568       2.37763480      -0.99961963      -0.54333382      -1.85482838 F F F
 H              8.26997857       8.18109805       3.32867878      -0.07784959       0.06418256      -0.07171333      -2.78100245       3.36092911       0.73378323      -2.34999519 F F F
 H              8.17396030       5.83966912       7.14586182      -0.11822393       0.02151757       0.05116927       0.69987107       0.39203742      -0.04534961      -1.51367595 F F F
 H              0.45156778       3.60773452       8.54571480      -0.00783561       0.05274293       0.13614602       0.03394579      -2.97814123       1.59716917      -1.19159124 F F F
 H              5.65047894       9.74534333       9.52864836      -0.01425877      -0.01013825      -0.01583151       1.88645736       0.57431870       0.52371889      -2.36614272 F F F
 H              4.78558905       4.74507269       0.54134197      -0.03643328       0.02784261       0.09665542       0.34284542       1.19040716       1.66631467      -2.59507993 F F F
 H              3.17589603       0.25249350       3.02900899      -0.02876554       0.09377507       0.11688246      -0.33396694       0.31937645      -1.24459077      -0.92710748 F F F
 C              0.08728264       7.05927684       8.08714636       0.00112259       0.01154330       0.03257893       0.02947821      -3.22189656      -7.62915189      -7.38572767 F F F
 C              2.87060172       2.30624977       5.50266161       0.01583440      -0.02444361      -0.02879942      -2.72195218      -1.13544608      -0.30273845      -9.12241855 F F F
 C              0.40207581       3.96400676       7.59132291      -0.02548943       0.02142432       0.00346966      -1.46812863       2.63280355      -2.79223206      -5.48049015 F F F
 C              5.69207000       5.52020194       0.91205193       0.00315530      -0.00372812       0.00152025      -0.79469466       0.02286730      -0.62693048      -7.45443617 F F F
 C              6.67942111       5.32824123       5.46745518       0.02627832      -0.02927514      -0.00192583       0.11973651       2.04389852      -5.71995667      -6.14815276 F F F
 C              1.60844924       3.62203609       6.25407131       0.01399116      -0.01955018       0.00046688       0.28406559      -0.42172607       1.01187632      -9.04889838 F F F
 C              6.38310443       1.77898376       5.01516162      -0.00476592      -0.01773866      -0.01083268      -0.63012504      -5.28072715       3.99492408      -5.40073954 F F F
 C              3.34704756       1.25862594       4.20670928      -0.00004046      -0.01895302      -0.01703661      -1.63785814      -0.28529061       1.22614306      -7.10819666 F F F
 C              6.96554445       9.48404050       9.59069442      -0.00332603       0.01027140       0.00760378      -5.35552527       0.53001066      -2.51673842      -5.72559975 F F F
 C              6.62996738       5.76934082       3.92107046      -0.00068837       0.00611506      -0.01206636       0.48151882       2.81916078       3.68783215      -7.01025727 F F F
 C              5.68864532       6.86863816       3.49260249      -0.01354884       0.00138616       0.00665946       2.82267802      -3.48272929      -1.42911076      -6.68319936 F F F
 C              0.72574945       5.29959632       7.62254275       0.00106569      -0.02514078      -0.02181673      -0.20112630       4.90062287       0.72017081      -9.19793079 F F F
 C              6.62257863       0.67120639       6.17644093       0.01368517       0.01578916       0.00220593      -7.64917481       9.91349102      -8.36012573      -6.91449406 F F F
 C              9.18533402       4.40676486       6.98689745      -0.00789013       0.00835178       0.05128929      -0.16964019       0.66492748      -0.41230239      -9.13069290 F F F
 C              1.48174424       2.17917726       5.91380744       0.00682460       0.00437432      -0.01502452      -0.37012598       2.83232169       1.33259201      -6.37604346 F F F
 C              0.65596500       8.67789076       8.89510202      -0.03522838      -0.00352519      -0.00368557      -0.85760801      -5.00797274       0.80886542      -7.70379549 F F F
 C              4.37233613       1.91263750       3.83720971       0.01676260      -0.00668371       0.00303618       4.51036255       1.80423397      -0.20829359      -7.43853299 F F F
 C              3.54670701       1.39827533       2.69672283      -0.00549165      -0.01132908      -0.02299907      -0.35316274      -1.09431484       2.20730282      -8.28045677 F F F
 C              6.07528396       6.60557466       1.58349815      -0.00116465      -0.00323748      -0.02292210      -1.58150526      -1.56429393       2.51019274      -7.50017026 F F F
 C              0.26510044       7.27931542       9.24500968       0.01830365       0.01341566       0.01039440       3.19786452       3.09321582       8.68658931      -4.89965552 F F F
      50
 Properties=species:S:1:pos:R:3:velocities:R:3:forces:R:3:local_energy:R:1:fix_atoms:S:3 Lattice="9.9905032156        0.0000000000    0.0000000000    0.0000000000    9.9905032156    0.0000000000    0.0000000000    0.0000000000    9.9905032156" temperature=4553.52166060 pressure=4446.29300555 time_step=0.5000 time=10.000000 energy=-208.390125 energy_soap=-216.31473352  energy_2b=3.39039282 energy_3b=4.53421572 energy_core_pot=0.00000000 energy_vdw=0.00000000 energy_exp=0.00000000 energy_xps=0.00000000 virial="-15.75258633          3.74243520     -7.37999724      3.74243520     -2.79524571      0.67659610     -7.37999724      0.67659610    -30.83201576" stress="0.01579755           -0.00375312      0.00740106     -0.00375312      0.00280322     -0.00067853      0.00740106     -0.00067853      0.03092002" volume=997.153669 step=20
 H              1.65683984       6.13964652       4.94467430      -0.11934447       0.02063164      -0.02629738       0.83981924      -0.49413654      -1.55362205      -2.13163796 F F F
 H              3.84194043       6.59740690       2.30020066      -0.01663058       0.01196429       0.02273669      -0.61476559       0.15006453       1.10203451      -2.06800119 F F F
 H              0.51528929       6.58397190       0.41250194      -0.01682298      -0.02120732       0.09480504      -0.21925694       2.59629189      -1.85049657      -2.17771475 F F F
 H              7.33257892       5.41354857       3.22208079      -0.05106688      -0.08193302      -0.03755580      -0.07489741       0.28756205       0.14884696      -1.57944628 F F F
 H              1.70399721       5.12299648       5.84380698       0.05034092      -0.12787006       0.03282674      -0.44567363      -1.08065226       0.99353988      -1.22966945 F F F
 H              3.32536776       3.63285071       4.02386334      -0.03703418      -0.05450964       0.00708580      -0.41852458      -0.67764659       0.34093985      -1.19671156 F F F
 H              4.99888594       5.94950900       9.82012124      -0.02610060       0.04309040       0.10103916       1.25056351      -1.81151621       1.68437237      -2.24338741 F F F
 H              2.68499461       7.41013622       9.16657462       0.06283695       0.17754084      -0.04786046      -0.61606066       1.40159560       0.14948860      -2.53261410 F F F
 H              7.86078694       0.88943641       6.80103107      -0.07823372       0.08011214      -0.04955038      -3.62387726      -0.01332444      -1.86695408      -2.40726346 F F F
 H              3.55681503       9.66387094       7.71647853       0.05973374      -0.00302856      -0.03283540       2.38315132      -1.86844310      -0.67152031      -2.82154393 F F F
 H              4.38381306       6.57950333       3.19717093       0.08123715       0.06195169       0.10259538       0.07726897       0.50352695      -0.88859328      -2.11916414 F F F
 H              6.41611526       9.83019106       8.57927615       0.09427895       0.03850829      -0.04725249       1.45721250      -0.52305099       0.13131183      -3.40041316 F F F
 H              7.32033115       9.32107792       0.62599012       0.03260331       0.02465046      -0.05892911       0.10278288      -0.02538817      -1.66523571      -3.40244810 F F F
 H              4.20929772       0.49986608       5.09260355       0.04929264      -0.05536538      -0.04799110      -1.50055489      -1.01073895      -1.29350970      -0.38016786 F F F
 H              7.99707033       8.37850282       3.75794926      -0.04872270      -0.03715360      -0.09150042      -2.87116477       1.63237042      -3.06224623      -2.13749479 F F F
 H              2.43186454       5.84268015       4.44284276      -0.07349629       0.01896037       0.00814996      -0.61820452       1.14645717      -0.37461947      -2.79314948 F F F
 H              9.41929586       2.33793971       5.76166682      -0.06038058      -0.12127173       0.01080237      -2.73376262       2.71539219      -0.29238353      -2.58553633 F F F
 H              0.00977400       6.28949251       3.79389948       0.02141398       0.04288390      -0.03110009       0.45661944       0.02953086       0.42688568      -0.83087817 F F F
 H              6.05082835       0.18034304       5.76070379       0.08593601      -0.04533151       0.04946401      -0.57324762      -3.37264137       0.67736057      -1.47494669 F F F
 H              5.39921118       9.15086729       4.75240845       0.01970691      -0.00781841      -0.04713512       0.50175808       0.37998604       0.14573963      -1.71672898 F F F
 H              4.26903054       9.16647001       7.47472793      -0.03226107      -0.03715691       0.05083622      -2.28701124       1.60960451       0.96115420      -2.90890887 F F F
 H              8.18837850       3.73544663       7.36126226      -0.00716422      -0.04646383       0.04894824       0.06442549       1.57320288      -0.12049885      -2.15006762 F F F
 H              1.99102378       7.98348389       9.30243983      -0.04833752       0.02188278       0.05979799       2.79721178      -1.65335869       0.08158721      -1.31813282 F F F
 H              9.84282752       1.83930902       5.83936036      -0.02579835       0.05180752      -0.06985893       2.29715398      -2.53152412       0.22660224      -2.33438989 F F F
 H              7.28152133       8.96208907       2.96015285      -0.03640941       0.00912903       0.06968023       2.16257596      -2.49386600       2.94601881      -2.23732104 F F F
 H              7.34402301       5.88424553       7.42523386      -0.03598832      -0.03728029      -0.01279517       1.27168991      -0.98747411      -0.79925598      -1.13201233 F F F
 H              0.29275888       3.59792998       9.11345391      -0.02242608      -0.00523238      -0.06008531       0.10042590       0.33918958      -2.35426462      -1.54166689 F F F
 H              5.79650065       9.91371425       0.08309114       0.01500385       0.02913571       0.12929855       1.18169897      -0.35966735      -0.29252398      -3.05093383 F F F
 H              4.99092898       4.98173154       1.70803574       0.08960085      -0.03529642       0.06132545       0.90579496      -1.42820931      -2.14783641      -2.03252149 F F F
 H              2.12331738       0.55788482       3.99871475      -0.11889228      -0.00449216       0.10490395       1.96804141       0.25000779      -0.30047416      -1.18058773 F F F
 C              0.06918069       7.07957057       8.18366479      -0.00306128      -0.00374209       0.00281172       0.70228961      -0.52220375       1.32641878      -9.33491888 F F F
 C              2.90761048       2.01801155       5.18054507      -0.00780955      -0.03151031      -0.03506950      -2.38370399      -0.14530318      -0.32006246     -10.05177407 F F F
 C              0.17890089       4.09474377       7.68767247      -0.00559800      -0.00289791       0.02152961       4.81601902      -2.50745228       2.71471086      -4.22018470 F F F
 C              5.62565863       5.47364063       0.85173944      -0.01991943      -0.00256096      -0.01183257      -3.03111240       1.99298358       0.20497687      -7.55161199 F F F
 C              6.93575861       5.14680211       5.24473442       0.02299659      -0.00588245      -0.03733329      -1.07802591       2.96054707      -2.46241115      -6.22191233 F F F
 C              1.73723407       3.43596935       6.30794052       0.00894729      -0.01084162       0.01265848      -1.46785751       4.37641474       2.33010586      -9.03565867 F F F
 C              6.32299758       1.49023652       5.01263444      -0.00875887      -0.02545531      -0.00440221      -2.75774855       4.47882498      -7.64557141      -6.86352227 F F F
 C              3.37116957       1.11284424       4.11554803       0.00717504      -0.00847508      -0.00404224       0.10358566       0.83958250      -0.60598142      -6.66807699 F F F
 C              6.81641968       9.61150058       9.61937351      -0.02043600       0.01466114       0.00621273      -2.99880970       1.04187232       2.03996054      -5.20976371 F F F
 C              6.62689113       5.90410287       3.93860679      -0.00260881       0.01597508       0.01515626       0.65075467      -1.25374191       2.27992027      -7.58375702 F F F
 C              5.70042205       6.75562025       3.53655501       0.01565071      -0.01994786       0.00564499       1.69704808      -0.80409520       0.49205567      -8.07514069 F F F
 C              0.75244750       5.26917307       7.42184688       0.00376928       0.01366082      -0.01874204      -0.45340367       1.69105547       0.46137988      -9.03029907 F F F
 C              6.69016983       1.01702466       6.04292606       0.01658184       0.03804680      -0.00860423       5.82718642      -1.65422213       7.38189369      -7.02252110 F F F
 C              9.03557905       4.52914121       7.45807834      -0.03482350       0.01681577       0.03969388      -6.30791435       0.16970292      -1.83839567      -9.29122265 F F F
 C              1.59063251       2.28901169       5.78688383       0.01936055       0.00972220      -0.01419870       2.89931638      -2.05002364      -1.44490116      -5.20229577 F F F
 C              0.28754311       8.54461340       8.88469970      -0.03947334      -0.00866822      -0.00302350      -2.40646618       4.46348786      -2.87669396      -6.65757812 F F F
 C              4.64626609       1.89143636       3.81904151       0.02956789      -0.00306796      -0.00759221       0.10941175      -1.10392046      -0.97673079      -8.30254593 F F F
 C              3.53375456       1.32410142       2.54967234       0.00455852      -0.00294328      -0.00340971       0.99511954       0.32151294       4.02321030      -6.81809187 F F F
 C              6.05674705       6.57245694       1.46812412       0.00200023       0.00027126      -0.00168008       1.22898276       0.78300141       1.78823167      -8.12566130 F F F
 C              0.52245716       7.53774461       9.47967058       0.02812199       0.02433820       0.02153616       0.63413582      -7.36116752       2.64603620      -6.00812753 F F F
      50
 Properties=species:S:1:pos:R:3:velocities:R:3:forces:R:3:local_energy:R:1:fix_atoms:S:3 Lattice="9.9905032156        0.0000000000    0.0000000000    0.0000000000    9.9905032156    0.0000000000    0.0000000000    0.0000000000    9.9905032156" temperature=4649.32462441 pressure=-13602.41458790 time_step=0.5000 time=20.000000 energy=-210.855612 energy_soap=-213.27870780  energy_2b=-2.22123737 energy_3b=4.64433351 energy_core_pot=0.00000000 energy_vdw=0.00000000 energy_exp=0.00000000 energy_xps=0.00000000 virial="-42.47936045         -3.79992264     -8.52614447     -3.79992264    -23.75992319     -6.52961910     -8.52614447     -6.52961910    -18.05330507" stress="0.04260062            0.00381077      0.00855048      0.00381077      0.02382774      0.00654826      0.00855048      0.00654826      0.01810484" volume=997.153669 step=40
 H              0.52901203       6.21801872       4.17591279      -0.14433755      -0.00542536      -0.06856658       0.36477720       0.22366651       0.05243988      -1.25263622 F F F
 H              3.91975045       6.68022208       2.72544164       0.06942807      -0.00217081       0.04795783       1.65262367      -0.27432355       0.04573138      -1.50217553 F F F
 H              0.38815239       7.37265039       0.57888818      -0.04942373       0.07512521       0.10214398      -1.38961735      -1.14212806       3.77809035      -2.09375463 F F F
 H              6.77864379       4.93091434       3.07029756      -0.04720832      -0.03508120      -0.01864165       0.17279981      -0.30270616      -0.55423162      -0.29349336 F F F
 H              2.66990124       4.51738529       6.09183098       0.14402397       0.09205887      -0.00622838      -1.75106075      -1.10508503       0.79125685      -1.64302001 F F F
 H              2.70275672       2.85793268       4.32053248      -0.08746391      -0.09128286       0.05148404      -0.45782630      -0.30136846       0.31314940      -0.35401794 F F F
 H              4.24186008       5.82458217       0.39092619      -0.07242631      -0.07228711       0.04001120       3.36731191      -1.35987883       1.37019593      -2.46076142 F F F
 H              2.84502030       9.13443072       9.11473725      -0.02858621       0.12868712       0.03659582      -0.72578165      -0.95212926       0.39149057      -1.87291810 F F F
 H              7.66005695       1.77026632       7.27501351       0.00278538       0.07856710       0.08050874      -1.47402958      -0.60717353      -1.90148359      -1.85274419 F F F
 H              4.22394502       9.60772158       7.38498016       0.08112733      -0.07255684      -0.00078983       0.14584853      -1.51732506       0.97288523      -2.91190564 F F F
 H              4.96924956       7.37138324       3.81210403       0.03792657       0.05933321       0.01720948       1.08870048      -2.28171010      -0.92255720      -2.23623178 F F F
 H              7.30574655       0.15592800       8.94502120       0.02360408       0.07079123       0.06688804      -1.04654613       1.98193762      -1.62540984      -3.06436613 F F F
 H              7.85618399       9.43891076       9.68478566      -0.00278436      -0.00102922      -0.06770966      -1.82703070      -0.75311649       1.75197739      -2.42423962 F F F
 H              4.07348295       9.68955296       4.16625109      -0.04745494      -0.05500793      -0.10088299      -0.34424521       1.65844729       0.61287811      -1.30182766 F F F
 H              7.05276434       8.16094742       2.56883016      -0.10192949      -0.00482062      -0.04012136       0.15695411       0.31420705       2.12620814      -1.53507791 F F F
 H              1.60239720       6.31937449       4.53791405      -0.01226888       0.03961506       0.03136904       1.02325465      -0.66467400       1.06601024      -2.65862645 F F F
 H              8.62977636       1.65071237       5.69353641      -0.03138847      -0.07016523      -0.02954134      -0.61494785      -0.25941040      -0.28917558      -1.75305738 F F F
 H              0.39221926       6.75497224       3.58668332       0.01142121       0.06804020      -0.05583802      -1.08868130       0.34739650      -0.94125256      -3.09562886 F F F
 H              7.00144489       9.57622259       6.54855771       0.09633809       0.03070062       0.06745572      -0.47809621       2.86919577      -1.03245935      -1.47042558 F F F
 H              5.52333437       9.25150811       4.32224824      -0.01053724       0.01730390      -0.04698143      -0.22686577      -0.28481518      -0.19134122      -2.04104613 F F F
 H              4.12593255       8.91486203       7.86659949       0.00046152       0.05576861      -0.00776701       0.17735236       1.59795321      -0.83242080      -2.64751263 F F F
 H              8.00582571       3.76385683       7.75924132      -0.06309525      -0.02964127       0.04070152      -0.53006979      -1.58176627       0.68860222      -2.41923049 F F F
 H              2.06479610       7.88646266       9.75780714      -0.04866112      -0.00857414       0.01945048      -2.58924607       0.21781263      -0.81094875      -2.65358950 F F F
 H              0.14384109       2.08511794       5.30679561       0.03142479       0.04592977      -0.02440886       0.55805466       0.06160880       0.57487639      -1.64324524 F F F
 H              7.13414690       8.54758583       3.96622195      -0.02635616      -0.07691329       0.03586154      -0.59532080      -0.40675291      -1.73259740      -1.86749972 F F F
 H              7.72645048       5.16278885       7.23239739       0.13182215      -0.08669830       0.00513165       1.61209787       1.04827412       0.41295356      -2.83787624 F F F
 H              0.54281772       3.05358769       8.60457237       0.06254615      -0.09664079       0.00158219      -0.80709282       2.64602264      -1.61350056      -2.04724764 F F F
 H              6.23583994       0.27405786       0.64177036       0.03906595       0.07486172       0.04210892       0.48947328       0.27465968      -0.19577008      -3.52589453 F F F
 H              5.74924072       4.47355907       1.22515330       0.02854207      -0.02506641      -0.13925966      -1.16338544       0.95396198      -1.14063617      -2.57141757 F F F
 H              1.58718582       0.60634204       4.71809400      -0.00978745       0.02041808       0.04666598       0.69919574       0.58772061      -0.10562165      -0.72507637 F F F
 C              0.09213634       7.03622503       8.28363049       0.00933948      -0.00394635       0.01738871       1.94114628       0.23417337       1.90436434      -7.44708518 F F F
 C              2.74452708       1.70597374       4.81591912      -0.02625147      -0.02891959      -0.03558986      -2.97549173       0.85343689       0.91670056     -10.09425273 F F F
 C              0.14719598       4.16827357       7.86564351      -0.00815578       0.02622753       0.00564835      -1.24641018       2.18996690      -1.01991648      -6.64588462 F F F
 C              5.43491841       5.51846885       0.87250025      -0.01660707       0.01305371       0.01525065      -1.10500469       2.53514269       1.45757779      -7.59715520 F F F
 C              7.14927320       5.15536031       4.86812721       0.02848567      -0.00566013      -0.02215887       5.34872061      -6.60558056       8.64731845      -7.99273698 F F F
 C              1.73918027       3.36400480       6.51491834      -0.00711166      -0.01543052       0.02523534       0.90489767       0.63739590      -1.22542732      -8.81186601 F F F
 C              6.13194253       1.35315835       4.77169404      -0.02336741      -0.00925397      -0.02461117      -0.08896372       0.59153016       2.08333036      -7.43349700 F F F
 C              3.51351869       1.03239945       4.02381708       0.02650396      -0.01310643      -0.01793057       3.85874259      -2.05892081      -2.19014081      -5.20691755 F F F
 C              6.56546947       9.77109962       9.70811854      -0.01461640       0.01062425       0.00496571       2.42953708      -1.25189131      -0.39977032      -5.16890021 F F F
 C              6.69747590       5.93443283       4.12457598       0.01014809      -0.00135165       0.01039980      -3.90750347       4.84171884      -6.85086159      -4.69655122 F F F
 C              5.83111400       6.62266922       3.54196114       0.00419165       0.00154455      -0.00962739      -3.24612663       5.04332857      -2.64147564     -10.17981417 F F F
 C              0.72972491       5.41083906       7.29780907      -0.01081606       0.01067190      -0.00305581      -1.85705591      -1.27139567       2.62503012      -6.87269417 F F F
 C              6.84754366       1.28238925       5.98644907       0.01215542       0.01760223      -0.01448898       1.43857681      -1.63676377      -1.49399396      -7.92776230 F F F
 C              8.61214387       4.66734338       7.79520134      -0.03674577       0.01339474       0.03012914       2.89175679      -0.99671098      -0.15248195      -7.31550057 F F F
 C              1.81605854       2.32672962       5.63384971       0.01807351       0.00217467      -0.01125490      -1.95811378       1.12605017       1.75011978      -8.46198592 F F F
 C              9.82806326       8.49691831       8.79403550      -0.04131221      -0.01384915      -0.00745578       2.93390200      -3.90138064       1.24861705      -6.35855564 F F F
 C              4.97595683       1.81385248       3.73676967       0.03860688      -0.01341724      -0.00458709       1.32888829      -1.89309798       2.06028668      -8.58031552 F F F