8
Lattice="3.242925 0.0 0.0 0.0 3.320273 0.0 0.048887 0.0 3.189636" Properties=species:S:1:pos:R:3:forces:R:3 virial="44.58921200186213 0.0 -3.1083198241878147 0.0 38.048398740112134 0.0 -3.1083198241878147 0.0 48.65864684574787" config_type=bulk_cryst energy=-66.82146117 stress="-1.298308721395119 -0.0 0.0905052714647626 -0.0 -1.107859181663575 -0.0 0.0905052714647626 -0.0 -1.4167988788068577" free_energy=-66.82146117 pbc="T T T"
C        0.00000000       0.00318000       0.00000000       0.00000000      -0.06424200      -0.00000000
C        0.82295000       0.82689000       0.79741000       0.00000000       0.06424200      -0.00000000
C        1.62146000       1.66332000       0.00000000      -0.00000000      -0.06424200      -0.00000000
C        2.44442000       2.48702000       0.79741000      -0.00000000       0.06424200       0.00000000
C        1.64591000       0.00318000       1.59482000      -0.00000000      -0.06424200       0.00000000
C        2.46886000       0.82689000       2.39223000      -0.00000000       0.06424200       0.00000000
C        0.02444000       1.66332000       1.59482000       0.00000000      -0.06424200      -0.00000000
C        0.84740000       2.48702000       2.39223000       0.00000000       0.06424200      -0.00000000
8
Lattice="3.320273 0.0 0.0 0.0 3.262571 0.0 0.0 0.0 3.315322" Properties=species:S:1:pos:R:3:forces:R:3 virial="34.12468257903995 0.5783552989001838 -0.4554791691733112 0.5783552989001838 38.66784352261074 0.10687009346963121 -0.4554791691733112 0.10687009346963121 34.47893880024161" config_type=bulk_cryst energy=-68.51715011 stress="-0.9501871205933903 -0.016104054737184192 0.012682621713612265 -0.016104054737184192 -1.0766894845454984 -0.0029757518229291094 0.012682621713612265 -0.0029757518229291094 -0.9600512328234818" free_energy=-68.51715011 pbc="T T T"
C        0.00993000       3.25981000       0.01295000       0.52767300       0.12055400      -1.08016500
C        0.86053000       0.81096000       0.82415000      -1.34293200       0.70984200       0.07099400
C        1.69172000       1.64663000       3.30593000      -2.22827100      -1.06301600      -0.38872400
C        2.50106000       2.43766000       0.81951000       1.06823500      -0.65400800       0.52747900
C        1.66497000       3.22430000       1.62316000      -0.06153000       1.87441700       1.57910700
C        2.47896000       0.79539000       2.49278000       0.34111400      -0.58723800      -0.25150800
C        3.30211000       1.60304000       1.68698000       1.54079600       0.37463400      -2.13828400
C        0.82555000       2.44828000       2.45800000       0.15491500      -0.77518500       1.68110100
8
Lattice="3.320273 0.0 0.0 -0.251501 3.310734 0.0 -0.152552 0.259714 3.384328" Properties=species:S:1:pos:R:3:forces:R:3 virial="31.735475647621108 16.628499755064965 7.017921902745466 16.628499755064965 34.06124010306757 -15.460021301890249 7.017921902745466 -15.460021301890249 28.817866174841008" config_type=bulk_cryst energy=-68.26023925 stress="-0.8530499897805025 -0.44697428529597477 -0.1886418301679415 -0.44697428529597477 -0.9155665679777218 0.41556556958592217 -0.1886418301679415 0.41556556958592217 -0.774624609976084" free_energy=-68.26023925 pbc="T T T"
C       -0.24157000       3.30797000       0.01296000       1.37684900       0.17519400      -1.86389200
C        0.75951000       0.88793000       0.84140000      -2.03313200       0.62217300       0.43746400
C        1.41342000       1.93043000       3.37494000      -1.09780900      -1.39620500      -1.30715800
C        2.27429000       2.53871000       0.83677000      -0.40242500      -0.23937600       1.75160500
C        1.33720000       3.40232000       1.65766000       1.48128000       1.32225700       0.31538200
C        2.30167000       1.00221000       2.54453000      -0.85431800      -0.38004100       0.86429100
C        3.10009000       1.75698000       1.72148000       2.29258500       0.73716100      -2.70964000
C        0.52251000       2.67919000       2.50975000      -0.76303000      -0.84116400       2.51194800
8
Lattice="3.34086 0.0 0.0 -0.191755 3.314731 0.0 0.264685 0.256445 3.299756" Properties=species:S:1:pos:R:3:forces:R:3 virial="31.562235286248374 13.285348667015255 -18.94039833691797 13.285348667015255 34.71037735901752 -18.82463148691697 -18.94039833691797 -18.82463148691697 38.85450293626678" config_type=bulk_cryst energy=-67.47130561 stress="-0.863732694656981 -0.36356708894500434 0.5183232792308138 -0.36356708894500434 -0.9498848068573689 0.5151552015456797 0.5183232792308138 0.5151552015456797 -1.0632930214331586" free_energy=-67.47130561 pbc="T T T"
C        0.00000000       0.00000000       0.00000000       1.77596000       1.97409400      -1.92451500
C        0.85345000       0.89279000       0.82494000      -1.77596000      -1.97409400       1.92451500
C        1.57455000       1.65737000       0.00000000       1.77596000       1.97409400      -1.92451500
C        2.42800000       2.55016000       0.82494000      -1.77596000      -1.97409400       1.92451500
C        1.80277000       0.12822000       1.64988000       1.77596000       1.97409400      -1.92451500
C        2.65622000       1.02102000       2.47482000      -1.77596000      -1.97409400       1.92451500
C        0.03646000       1.78559000       1.64988000       1.77596000       1.97409400      -1.92451500
C        0.88991000       2.67838000       2.47482000      -1.77596000      -1.97409400       1.92451500
8
Lattice="3.412981 0.0 0.0 0.0 3.21644 0.0 0.052794 0.0 3.168066" Properties=species:S:1:pos:R:3:forces:R:3 virial="28.89840064611184 0.0 -3.1665402309868598 0.0 45.91715303234051 0.0 -3.1665402309868598 0.0 49.35405675418279" config_type=bulk_cryst energy=-67.04454035 stress="-0.8309411413925434 -0.0 0.09105031749068948 -0.0 -1.3202963035022712 -0.0 0.09105031749068948 -0.0 -1.4191206203375404" free_energy=-67.04454035 pbc="T T T"
C        0.00000000       0.00272000       0.00000000       0.00000000       0.02571100       0.00000000
C        0.86644000       0.80139000       0.79202000       0.00000000      -0.02571100       0.00000000
C        1.70649000       1.61094000       0.00000000      -0.00000000       0.02571100      -0.00000000
C        2.57293000       2.40961000       0.79202000       0.00000000      -0.02571100       0.00000000
C        1.73289000       0.00272000       1.58403000      -0.00000000       0.02571100      -0.00000000
C        2.59933000       0.80139000       2.37605000       0.00000000      -0.02571100      -0.00000000
C        0.02640000       1.61094000       1.58403000      -0.00000000       0.02571100       0.00000000
C        0.89284000       2.40961000       2.37605000      -0.00000000      -0.02571100       0.00000000
8
Lattice="3.320273 0.0 0.0 0.047275 3.285026 0.0 0.128671 -0.289414 3.305131" Properties=species:S:1:pos:R:3:forces:R:3 virial="34.35336226568697 -3.202659104992561 -9.193106890275203 -3.202659104992561 36.9559476248103 19.817226973936467 -9.193106890275203 19.817226973936467 38.207661610875164" config_type=bulk_cryst energy=-67.58882994 stress="-0.9529452871666818 0.08884018038468684 0.25501224065795586 0.08884018038468684 -1.0251397184786584 -0.5497200798999451 0.25501224065795586 -0.5497200798999451 -1.0598616456855492" free_energy=-67.58882994 pbc="T T T"
C        0.05721000       3.28226000       0.01295000      -0.95743300       0.81358600      -0.37875700
C        0.90451000       0.74422000       0.82160000       0.08913000      -0.07336100      -0.19467300
C        1.84403000       1.36845000       3.29574000      -3.90401000      -0.14280500       0.50619000
C        2.56868000       2.38215000       0.81697000       3.05503000      -1.58670300      -0.61531300
C        1.77659000       3.10205000       1.61807000      -2.16867300       3.14567100       2.71834700
C        2.58728000       0.58394000       2.48513000       2.14139600      -1.59622100      -1.30347200
C        3.39009000       1.46956000       1.68188000       0.13497300       0.71528900      -1.60551800
C        0.95751000       2.24806000       2.45035000       1.60958700      -1.27545500       0.87319500
8
Lattice="3.376742 0.0 0.0 -0.246431 3.311115 0.0 0.0 0.0 3.320273" Properties=species:S:1:pos:R:3:forces:R:3 virial="26.843274255523063 15.628789822323204 0.0 15.628789822323204 33.64517092932771 0.0 0.0 0.0 31.44516691562224" config_type=bulk_cryst energy=-69.22026751 stress="-0.7230853296445755 -0.42099739894045024 -0.0 -0.42099739894045024 -0.9063100604195261 -0.0 -0.0 -0.0 -0.8470478924616698" free_energy=-69.22026751 pbc="T T T"
C        0.00000000       0.00000000       0.00000000       0.00000000      -0.00000000      -1.23833600
C        0.78258000       0.82778000       0.83007000      -0.00000000       0.00000000       1.23833600
C        1.56516000       1.65556000       0.00000000       0.00000000       0.00000000      -1.23833600
C        2.34773000       2.48334000       0.83007000      -0.00000000      -0.00000000       1.23833600
C        1.68837000       0.00000000       1.66014000      -0.00000000      -0.00000000      -1.23833600
C        2.47095000       0.82778000       2.49020000       0.00000000       0.00000000       1.23833600
C       -0.12322000       1.65556000       1.66014000      -0.00000000       0.00000000      -1.23833600
C        0.65936000       2.48334000       2.49020000       0.00000000      -0.00000000       1.23833600
8
Lattice="3.320273 0.0 0.0 0.0 3.171766 0.0 0.0 0.0 3.226148" Properties=species:S:1:pos:R:3:forces:R:3 virial="39.10803637049727 0.0 0.0 0.0 51.16221843443035 0.0 0.0 0.0 47.11900079546534" config_type=bulk_cryst energy=-66.32448259 stress="-1.1510833987073994 -0.0 -0.0 -0.0 -1.5058792449457268 -0.0 -0.0 -0.0 -1.3868735076726444" free_energy=-66.32448259 pbc="T T T"
C        0.00000000       0.00000000       0.00000000      -0.00000000       0.00000000       0.00000000
C        0.83007000       0.79294000       0.80654000       0.00000000       0.00000000      -0.00000000
C        1.66014000       1.58588000       0.00000000       0.00000000       0.00000000      -0.00000000
C        2.49020000       2.37882000       0.80654000      -0.00000000       0.00000000      -0.00000000
C        1.66014000       0.00000000       1.61307000      -0.00000000      -0.00000000       0.00000000
C        2.49020000       0.79294000       2.41961000       0.00000000      -0.00000000       0.00000000
C        0.00000000       1.58588000       1.61307000      -0.00000000      -0.00000000       0.00000000
C        0.83007000       2.37882000       2.41961000       0.00000000      -0.00000000       0.00000000
8
Lattice="3.463632 0.0 0.0 0.0 3.250142 0.0 0.16099 0.0 3.316367" Properties=species:S:1:pos:R:3:forces:R:3 virial="19.430886642305566 0.46246369269825377 -10.018281188409025 0.46246369269825377 36.50127590798826 -0.07612688636171044 -10.018281188409025 -0.07612688636171044 32.423764247538585" config_type=bulk_cryst energy=-69.2731478 stress="-0.5204703021965355 -0.012387423297994488 0.26834688162240344 -0.012387423297994488 -0.9777129809932126 0.0020391135144443126 0.26834688162240344 0.0020391135144443126 -0.8684938925804603" free_energy=-69.2731478 pbc="T T T"
C        0.00994000       3.24738000       0.01295000       0.63184900       0.86955400      -1.06320900
C        0.93662000       0.80785000       0.82441000      -1.28189100      -0.14443500       0.14603700
C        1.92439000       1.64042000       3.30698000      -2.02640800      -0.24001400      -0.11175000
C        2.64882000       2.42834000       0.81978000       0.91011500      -1.50968700       0.31008100
C        1.81715000       3.21187000       1.62369000      -0.24988400       2.65207900       1.44340300
C        2.70722000       0.79228000       2.49356000       0.37389400      -1.28033100      -0.19064900
C        3.52597000       1.59682000       1.68750000       1.67621800       1.16767800      -2.12781100
C        0.98214000       2.43896000       2.45878000      -0.03389300      -1.51484500       1.59389700
8
Lattice="3.159855 0.0 0.0 -0.04632 3.390915 0.0 0.163645 0.261424 3.305917" Properties=species:S:1:pos:R:3:forces:R:3 virial="47.77931729332455 3.7704244410132612 -12.308458820156028 3.7704244410132612 30.22748480388298 -17.139180381931077 -12.308458820156028 -17.139180381931077 40.10242287743094" config_type=bulk_cryst energy=-66.89559098 stress="-1.3488508707116944 -0.10644229717622902 0.3474782884561238 -0.10644229717622902 -0.8533476723167525 0.483853677513355 0.3474782884561238 0.483853677513355 -1.1321255949261697" free_energy=-66.89559098 pbc="T T T"
C        0.00000000       0.00000000       0.00000000       1.71750300       1.10781600      -0.83243600
C        0.81929000       0.91308000       0.82648000      -1.71750300      -1.10781600       0.83243600
C        1.55677000       1.69546000       0.00000000       1.71750300       1.10781600      -0.83243600
C        2.37606000       2.60854000       0.82648000      -1.71750300      -1.10781600       0.83243600
C        1.66175000       0.13071000       1.65296000       1.71750300       1.10781600      -0.83243600
C        2.48104000       1.04380000       2.47944000      -1.71750300      -1.10781600       0.83243600
C        0.05866000       1.82617000       1.65296000       1.71750300       1.10781600      -0.83243600
C        0.87796000       2.73925000       2.47944000      -1.71750300      -1.10781600       0.83243600
8
Lattice="3.320273 0.0 0.0 0.158421 3.19067 0.0 0.205064 -0.13346 3.311246" Properties=species:S:1:pos:R:3:forces:R:3 virial="36.61465260597222 -11.653558308441799 -14.561246261654139 -11.653558308441799 47.33835550661149 10.785174359469295 -14.561246261654139 10.785174359469295 39.258659023242785" config_type=bulk_cryst energy=-66.76961815 stress="-1.0437771580794746 0.3322090230815082 0.41509874215236087 0.3322090230815082 -1.349478710356176 -0.3074539246203935 0.41509874215236087 -0.3074539246203935 -1.1191500841553161" free_energy=-66.76961815 pbc="T T T"
C        0.00000000       0.00000000       0.00000000      -1.09533300       1.58253000       1.41385400
C        0.92094000       0.76430000       0.82781000       1.09533300      -1.58253000      -1.41385400
C        1.73935000       1.59533000       0.00000000      -1.09533300       1.58253000       1.41385400
C        2.66029000       2.35964000       0.82781000       1.09533300      -1.58253000      -1.41385400
C        1.76267000      -0.06673000       1.65562000      -1.09533300       1.58253000       1.41385400
C        2.68361000       0.69757000       2.48343000       1.09533300      -1.58253000      -1.41385400
C        0.18174000       1.52860000       1.65562000      -1.09533300       1.58253000       1.41385400
C        1.10268000       2.29291000       2.48343000       1.09533300      -1.58253000      -1.41385400
8
Lattice="3.320273 0.0 0.0 0.021872 3.157939 0.0 0.130494 -0.125278 3.315341" Properties=species:S:1:pos:R:3:forces:R:3 virial="37.620541909352355 -1.2178536632832315 -9.29556119064738 -1.2178536632832315 49.9051931683465 9.245868614669835 -9.29556119064738 9.245868614669835 38.93173556691888" config_type=bulk_cryst energy=-66.6875525 stress="-1.0822293606645044 0.035033971455639405 0.26740521889907237 0.035033971455639405 -1.4356216725041853 -0.26597571358095307 0.26740521889907237 -0.26597571358095307 -1.119948441829117" free_energy=-66.6875525 pbc="T T T"
C        0.03181000       3.15517000       0.01295000      -0.05595700       0.94246200      -0.78802200
C        0.89862000       0.75348000       0.82415000      -0.73423400      -0.03553800      -0.03211300
C        1.83315000       1.46904000       3.30595000      -3.18633200      -0.16114300       0.12807600
C        2.55008000       2.32787000       0.81952000       2.13946900      -1.71763900      -0.08490300
C        1.75209000       3.05703000       1.62317000      -1.15688000       3.12755700       2.19442700
C        2.58230000       0.67527000       2.49279000       1.18320000      -1.65068900      -0.74623900
C        3.37830000       1.48808000       1.68698000       1.02634100       1.02838900      -2.06427500
C        0.93983000       2.27585000       2.45801000       0.78439200      -1.53339900       1.39304900
8
Lattice="3.320273 0.0 0.0 0.03926 3.381953 0.0 0.0 0.0 3.473028" Properties=species:S:1:pos:R:3:forces:R:3 virial="27.282148276245014 -2.4202914056801683 0.0 -2.4202914056801683 22.839756759250033 0.0 0.0 0.0 15.304709126049744" config_type=bulk_cryst energy=-70.9683712 stress="-0.6995663620658421 0.06206089185744783 -0.0 0.06206089185744783 -0.5856549632658327 -0.0 -0.0 -0.0 -0.3924419579197495" free_energy=-70.9683712 pbc="T T T"
C        0.00000000       0.00000000       0.00000000      -0.00000000       0.00000000       0.14168200
C        0.83988000       0.84549000       0.86826000       0.00000000       0.00000000      -0.14168200
C        1.67977000       1.69098000       0.00000000       0.00000000      -0.00000000       0.14168200
C        2.51965000       2.53646000       0.86826000       0.00000000       0.00000000      -0.14168200
C        1.66014000       0.00000000       1.73651000      -0.00000000      -0.00000000       0.14168200
C        2.50002000       0.84549000       2.60477000      -0.00000000       0.00000000      -0.14168200
C        0.01963000       1.69098000       1.73651000      -0.00000000      -0.00000000       0.14168200
C        0.85951000       2.53646000       2.60477000       0.00000000      -0.00000000      -0.14168200
8
Lattice="3.23812 0.0 0.0 0.167224 3.372954 0.0 0.0 0.0 3.319436" Properties=species:S:1:pos:R:3:forces:R:3 virial="39.55679644699103 -10.654453556866505 -0.4237755665628324 -10.654453556866505 29.801445318646252 0.2332569679491514 -0.4237755665628324 0.2332569679491514 33.526298463093504" config_type=bulk_cryst energy=-68.52011974 stress="-1.0910721123412366 0.29387559641514405 0.011688755007952243 0.29387559641514405 -0.82199593534351 -0.006433791297524344 0.011688755007952243 -0.006433791297524344 -0.9247363934571777" free_energy=-68.52011974 pbc="T T T"
C        0.17716000       3.37019000       0.01295000       0.51220800       0.01205100      -0.22521500
C        0.88180000       0.83855000       0.82518000      -1.41283100       0.82707800      -0.69439200
C        1.73426000       1.70183000       3.31005000      -2.10127400      -0.77753600       0.55360400
C        2.56486000       2.52045000       0.82054000       1.12019400      -0.88718700      -0.55638100
C        1.79112000       3.33469000       1.62522000      -0.28351400       1.81711200       2.54761500
C        2.45915000       0.82298000       2.49586000       0.46832100      -0.50215800      -1.13904400
C        3.30357000       1.65823000       1.68903000       1.51691800       0.24976100      -1.26467500
C        0.93043000       2.53106000       2.46108000       0.17997800      -0.73912100       0.77848900
8
Lattice="3.21766 0.0 0.0 -0.179411 3.257298 0.0 0.0 0.0 3.320273" Properties=species:S:1:pos:R:3:forces:R:3 virial="44.935378236209615 11.258787334522939 0.0 11.258787334522939 42.789963536394026 0.0 0.0 0.0 36.62558032263271" config_type=bulk_cryst energy=-67.1331557 stress="-1.2912697096821852 -0.32353418672478984 -0.0 -0.32353418672478984 -1.2296187539026162 -0.0 -0.0 -0.0 -1.0524781213933938" free_energy=-67.1331557 pbc="T T T"
C        0.00000000       0.00000000       3.30932000      -0.00000000      -0.00000000       0.19262400
C        0.75956000       0.81432000       0.84102000       0.00000000      -0.00000000      -0.19262400
C        1.51912000       1.62865000       3.30932000       0.00000000      -0.00000000       0.19262400
C        2.27869000       2.44297000       0.84102000      -0.00000000       0.00000000      -0.19262400
C        1.60883000       0.00000000       1.64919000       0.00000000      -0.00000000       0.19262400
C        2.36839000       0.81432000       2.50116000      -0.00000000       0.00000000      -0.19262400
C       -0.08971000       1.62865000       1.64919000      -0.00000000       0.00000000       0.19262400
C        0.66986000       2.44297000       2.50116000       0.00000000      -0.00000000      -0.19262400
8
Lattice="3.320273 0.0 0.0 0.0 3.199702 0.0 0.0 0.104027 3.197715" Properties=species:S:1:pos:R:3:forces:R:3 virial="39.346562824503145 0.8056655590613212 -0.6983616459548504 0.8056655590613212 49.308390899159384 -7.864694006318754 -0.6983616459548504 -7.864694006318754 49.72753604220186" config_type=bulk_cryst energy=-65.99847111 stress="-1.1582004230428975 -0.023715469010543687 0.02055688466079008 -0.023715469010543687 -1.4514355282745617 0.23150413330510133 0.02055688466079008 0.23150413330510133 -1.4637734314391515" free_energy=-65.99847111 pbc="T T T"
C        0.00993000       3.19694000       0.01295000       1.32823200       0.19572500      -1.18259400
C        0.86053000       0.82125000       0.79475000      -2.12526000       0.90763900      -0.06472900
C        1.69172000       1.71923000       3.18833000      -1.73444200      -1.06268900      -0.43941800
C        2.50106000       2.41651000       0.79011000       0.42934100      -0.78404500       0.65490500
C        1.66497000       3.21345000       1.56436000       0.80340500       1.89885700       1.62293600
C        2.47896000       0.85769000       2.40457000      -0.50572700      -0.72415700      -0.14662900
C        3.30211000       1.62362000       1.62817000       2.38294000       0.55831800      -2.36696000
C        0.82555000       2.47915000       2.36979000      -0.57848900      -0.98964900       1.92248800
8
Lattice="3.424859 0.0 0.0 -0.22102 3.477272 0.0 0.0 0.0 3.320273" Properties=species:S:1:pos:R:3:forces:R:3 virial="18.772465726002416 12.184143941220805 0.0 12.184143941220805 15.417891826705537 0.0 0.0 0.0 26.340026340287988" config_type=bulk_cryst energy=-70.87646733 stress="-0.4747513040230228 -0.3081341742170053 -0.0 -0.3081341742170053 -0.3899149081878801 -0.0 -0.0 -0.0 -0.666133156697227" free_energy=-70.87646733 pbc="T T T"
C        0.00000000       0.00000000       0.00000000       0.00000000       0.00000000      -0.78401400
C        0.80096000       0.86932000       0.83007000      -0.00000000      -0.00000000       0.78401400
C        1.60192000       1.73864000       0.00000000       0.00000000      -0.00000000      -0.78401400
C        2.40288000       2.60795000       0.83007000      -0.00000000       0.00000000       0.78401400
C        1.71243000       0.00000000       1.66014000      -0.00000000      -0.00000000      -0.78401400
C        2.51339000       0.86932000       2.49020000       0.00000000       0.00000000       0.78401400
C       -0.11051000       1.73864000       1.66014000       0.00000000       0.00000000      -0.78401400
C        0.69045000       2.60795000       2.49020000      -0.00000000      -0.00000000       0.78401400
8
Lattice="3.42305 0.0 0.0 0.0 3.260319 0.0 0.0 -0.154705 3.163912" Properties=species:S:1:pos:R:3:forces:R:3 virial="26.61002994740708 0.0 0.0 0.0 41.01163414741727 9.6346701420101 0.0 9.6346701420101 48.410007865781495" config_type=bulk_cryst energy=-67.42410431 stress="-0.7536116956925203 -0.0 -0.0 -0.0 -1.1614735952586932 -0.2728595239279627 -0.0 -0.2728595239279627 -1.3709998894523878" free_energy=-67.42410431 pbc="T T T"
C        3.41103000       0.00000000       0.00000000       0.50410100      -0.00000000      -0.00000000
C        0.86778000       0.77640000       0.79098000      -0.50410100       0.00000000       0.00000000
C        1.69951000       1.63016000       0.00000000       0.50410100      -0.00000000       0.00000000
C        2.57931000       2.40656000       0.79098000      -0.50410100       0.00000000      -0.00000000
C        1.69951000      -0.07735000       1.58196000       0.50410100       0.00000000      -0.00000000
C        2.57931000       0.69905000       2.37293000      -0.50410100      -0.00000000       0.00000000
C        3.41103000       1.55281000       1.58196000       0.50410100       0.00000000       0.00000000
C        0.86778000       2.32921000       2.37293000      -0.50410100      -0.00000000      -0.00000000
8
Lattice="3.166146 0.0 0.0 0.0 3.2963 0.0 -0.281616 0.0 3.308308" Properties=species:S:1:pos:R:3:forces:R:3 virial="49.66155306943327 0.0 20.628914194813063 0.0 40.37030838091241 0.0 20.628914194813063 0.0 41.42516599675628" config_type=bulk_cryst energy=-66.15481914 stress="-1.4383238901896727 -0.0 -0.5974654089772123 -0.0 -1.1692259989816973 -0.0 -0.5974654089772123 -0.0 -1.1997773373076548" free_energy=-66.15481914 pbc="T T T"
C        0.00000000       0.00000000       0.00000000       0.00000000      -1.86920300      -0.00000000
C        0.72113000       0.82408000       0.82708000       0.00000000       1.86920300       0.00000000
C        1.58307000       1.64815000       0.00000000       0.00000000      -1.86920300       0.00000000
C        2.30421000       2.47222000       0.82708000      -0.00000000       1.86920300      -0.00000000
C        1.44226000       0.00000000       1.65415000      -0.00000000      -1.86920300       0.00000000
C        2.16340000       0.82408000       2.48123000      -0.00000000       1.86920300       0.00000000
C       -0.14081000       1.64815000       1.65415000       0.00000000      -1.86920300       0.00000000
C        0.58032000       2.47222000       2.48123000      -0.00000000       1.86920300      -0.00000000
8
Lattice="3.320273 0.0 0.0 0.159975 3.316416 0.0 0.0 0.0 3.320273" Properties=species:S:1:pos:R:3:forces:R:3 virial="32.44832460101547 -10.531259254663137 0.0 -10.531259254663137 33.464306649442975 0.0 0.0 0.0 32.51849662936379" config_type=bulk_cryst energy=-69.09823359 stress="-0.8875149727812083 0.28804723774433943 -0.0 0.28804723774433943 -0.9153037505114493 -0.0 -0.0 -0.0 -0.8894342930109994" free_energy=-69.09823359 pbc="T T T"
C        0.00000000       0.00000000       0.00000000       0.00000000       0.00000000       0.85558300
C        0.87006000       0.82910000       0.83007000      -0.00000000      -0.00000000      -0.85558300
C        1.74012000       1.65821000       0.00000000       0.00000000      -0.00000000       0.85558300
C        2.61019000       2.48731000       0.83007000      -0.00000000      -0.00000000      -0.85558300
C        1.66014000       0.00000000       1.66014000       0.00000000      -0.00000000       0.85558300
C        2.53020000       0.82910000       2.49020000      -0.00000000       0.00000000      -0.85558300
C        0.07999000       1.65821000       1.66014000      -0.00000000       0.00000000       0.85558300
C        0.95005000       2.48731000       2.49020000       0.00000000      -0.00000000      -0.85558300
8
Lattice="3.332245 0.0 0.0 0.0 3.269331 0.0 0.0 0.0 3.320273" Properties=species:S:1:pos:R:3:forces:R:3 virial="32.53130780074623 0.5588428447285655 -0.44241423245178446 0.5588428447285655 37.485418130502616 0.1049206238695079 -0.44241423245178446 0.1049206238695079 33.459794963356394" config_type=bulk_cryst energy=-68.76982687 stress="-0.899356569864635 -0.015449701161935718 0.012230929939681216 -0.015449701161935718 -1.0363173001307098 -0.0029006227775808524 0.012230929939681216 -0.0029006227775808524 -0.9250254127787607" free_energy=-68.76982687 pbc="T T T"
C        0.00993000       3.26657000       0.01295000       0.51763300       0.11765900      -1.06854200
C        0.86352000       0.81265000       0.82538000      -1.32753900       0.68699700       0.06992000
C        1.69771000       1.65002000       3.31088000      -2.19540300      -1.05836400      -0.38062300
C        2.51003000       2.44273000       0.82075000       1.04340600      -0.64154100       0.51953900
C        1.67096000       3.23106000       1.62564000      -0.06483600       1.85297400       1.55865400
C        2.48794000       0.79708000       2.49649000       0.34799600      -0.56475500      -0.24880200
C        3.31408000       1.60642000       1.68945000       1.52423900       0.37686800      -2.10958600
C        0.82855000       2.45335000       2.46171000       0.15450400      -0.76983900       1.65944000
8
Lattice="3.320273 0.0 0.0 0.0 3.398829 0.0 0.0 0.266862 3.309531" Properties=species:S:1:pos:R:3:forces:R:3 virial="31.14713952873404 0.6419474131374677 -0.6692123162133016 0.6419474131374677 24.835598160417064 -16.564050786677473 -0.6692123162133016 -16.564050786677473 33.66269503325617" config_type=bulk_cryst energy=-69.10350427 stress="-0.8339665007300049 -0.01718817990631361 0.01791819929669517 -0.01718817990631361 -0.6649746077732807 0.44350343824465327 0.01791819929669517 0.44350343824465327 -0.9013206479563679" free_energy=-69.10350427 pbc="T T T"
C        0.00993000       3.39606000       0.01295000       1.72787700       0.20115500      -1.09806600
C        0.86053000       0.91174000       0.82270000      -2.44207600       0.66615900      -0.20029600
C        1.69172000       1.98163000       3.30014000      -0.76677000      -0.86955100      -0.25255800
C        2.50106000       2.60657000       0.81807000      -0.59020100      -0.74450300       0.59912400
C        1.66497000       3.49399000       1.62027000       1.37334000       1.42956200       1.21800600
C        2.47896000       1.02960000       2.48843000      -0.93590500      -0.42755900       0.04332100
C        3.30211000       1.80460000       1.68408000       2.72343100       0.75112600      -2.02738800
C        0.82555000       2.75062000       2.45365000      -1.08969700      -1.00639000       1.71785800
8
Lattice="3.320273 0.0 0.0 0.0 3.381049 0.0 0.0 0.0 3.320273" Properties=species:S:1:pos:R:3:forces:R:3 virial="30.80327539726565 0.0 0.0 0.0 25.933294565296112 0.0 0.0 0.0 30.80327539726565" config_type=bulk_cryst energy=-69.92434156 stress="-0.8264143433442867 -0.0 -0.0 -0.0 -0.6957586919745421 -0.0 -0.0 -0.0 -0.8264143433442867" free_energy=-69.92434156 pbc="T T T"