      50
 Properties=species:S:1:pos:R:3:velocities:R:3:forces:R:3:local_energy:R:1:fix_atoms:S:3 Lattice="9.9905032156        0.0000000000    0.0000000000    0.0000000000    9.9905032156    0.0000000000    0.0000000000    0.0000000000    9.9905032156" temperature=6034.97991641 pressure=26117.41798684 time_step=0.5000 time=0.000000 energy=-216.333565 energy_soap=-244.90022767  energy_2b=23.04307573 energy_3b=5.52358646 energy_core_pot=0.00000000 energy_vdw=0.00000000 energy_exp=0.00000000 energy_xps=0.00000000 virial="-10.63176342         -2.25363162      3.14315685     -2.25363162     -8.43008688      0.01225543      3.14315685      0.01225543     -8.62167527" stress="0.01066211            0.00226006     -0.00315213      0.00226006      0.00845415     -0.00001229     -0.00315213     -0.00001229      0.00864629" volume=997.153669 step=0
 H              1.32369486       6.56946251       0.43699200      -0.04591499       0.03116460      -0.03143380       0.89231301      -0.19628314      -0.55251587      -0.73611832 F F F
 H              7.14242776       4.03203724       6.04994671      -0.01713806       0.13543232       0.09127525       1.33843118      -1.17471697       0.36460659      -2.87032661 F F F
 H              8.97574543       3.67763203       4.27950905      -0.02429077      -0.00083051      -0.15360601       0.37380402      -0.97707728      -0.22881956      -2.11426110 F F F
 H              6.16674190       4.98550195       3.62338678      -0.01076977       0.06396215      -0.04148435      -0.35094962      -0.28922918      -2.67394472      -3.11265558 F F F
 H              7.66326029       6.81043450       9.06183143      -0.04123057       0.00677654       0.12366444      -0.07897535       0.31317307      -0.70826689      -1.33615384 F F F
 H              4.82127535       8.67857803       8.50870452       0.13736850      -0.02606908       0.05906840       1.46081461       0.69934769      -0.17115452      -0.42666271 F F F
 H              3.17164223       0.82665951       4.98964274       0.08251542      -0.04758818       0.03210824      -1.54258560      -0.21723902      -2.44619269      -2.08671253 F F F
 H              9.63736852       8.32453336       3.87221436       0.01669523      -0.07218375      -0.07233003      -1.46861856      -0.21853581      -0.48276262      -2.24115880 F F F
 H              1.14096421       0.14047470       4.27556658       0.05741195      -0.03611570       0.07572727       1.54478803       1.56574372       0.19054876      -1.18058344 F F F
 H              0.96766907       8.35417019       4.33441546       0.15107997      -0.00873760      -0.00347391       1.07778937      -0.54488780      -0.56569771      -2.24832380 F F F
 H              0.04596783       1.73794666       1.82578089      -0.06837083       0.06356765      -0.03739218      -1.24658081       0.87432548       0.85038453      -1.49360089 F F F
 H              7.07927276       3.29322796       5.74157542       0.00566369       0.05190299      -0.06099759       0.48919587      -0.76590889       0.33266294      -2.97939329 F F F
 H              0.49664864       2.80361958       4.75212756      -0.02511164       0.10006662      -0.02965020       2.70222126       0.64124323       2.02094307      -1.60862947 F F F
 H              5.86166044       5.54850770       6.28381471       0.04167694       0.05904346      -0.04700541      -2.10253800      -0.48710541       0.74065693      -2.75857699 F F F
 H              5.30404529       6.87349617       8.37109553       0.01625351      -0.00995102       0.05979822       1.40577891      -1.48411808      -4.26361584      -1.02135597 F F F
 H              0.80902801       7.93057509       3.57893654       0.08628850       0.02609658      -0.11476596       0.27747714       0.33199723       0.73093393      -1.88559448 F F F
 H              6.29430212       5.07513543       4.30186671       0.05294286      -0.03098828      -0.03560686       0.75434996       0.64950247       0.55522902      -2.69085973 F F F
 H              5.20302026       4.93768943       6.11999264       0.05291320      -0.01033924       0.03068349       0.02113810       1.78370030       1.18730770      -2.67919065 F F F
 H              1.94617547       4.99973599       2.51207064       0.04048261       0.01996520       0.03268574       1.38897667       0.19962938      -0.69559175      -2.93412039 F F F
 H              2.64921854       5.14167072       2.18886525      -0.01696437      -0.07944216       0.02329037      -1.19442957      -0.23896746       0.32222068      -2.93417256 F F F
 H              7.58893374       6.36678273       7.13384508       0.02569241      -0.00197660      -0.07883411       0.14802800       0.00818789      -0.38882731      -2.61083252 F F F
 H              4.83810931       8.25322782       4.31902438       0.03954558      -0.05730504       0.03777231      -0.28225260       0.08006951       0.01978870      -2.96978934 F F F
 H              5.55889801       8.16342271       4.31534599       0.04653370      -0.02770832       0.00623704       0.29905332      -0.17721482      -0.11854530      -2.97731001 F F F
 H              6.06265204       4.05198779       0.10684381       0.05877710      -0.06941447      -0.07508062       1.73019858      -0.67285550      -0.85639369      -2.88735186 F F F
 H              7.24471390       1.55901644       6.70199973      -0.08318239      -0.04060877       0.04746163      -1.16094387      -0.47832476       0.46725865      -1.34049621 F F F
 H              8.24543490       2.20772158       2.81515687       0.00949025       0.09193426      -0.04512800      -0.19296777      -0.40041418      -1.82142015      -1.73943504 F F F
 H              6.77010400       3.72795574       9.81411414       0.11153841       0.10657705      -0.07021177      -1.83356673       0.85203846       0.82542636      -2.91390004 F F F
 H              6.88958718       9.41361683       0.78787566      -0.14056826       0.02525420      -0.01728726       0.93812163       4.04700060       0.84549958      -2.54187008 F F F
 H              7.05361791       9.43429483       7.55408401      -0.02610582       0.00148130      -0.05160463      -0.60132820      -0.38056113       0.37689656      -2.62785861 F F F
 H              7.13066088       0.40569090       1.09345486       0.02352897      -0.05101701       0.12540153      -0.79222075      -4.10079422      -1.07101908      -2.50293126 F F F
 C              2.88154238       0.11307423       9.76266868      -0.00801632      -0.00307397      -0.03012464      -0.54748744       2.68764421       4.34400454      -7.10607070 F F F
 C              9.98849138       1.38423413       3.50590083      -0.01637991      -0.00387078      -0.01799535       9.66109772     -11.47370039       7.61607539      -6.73230427 F F F
 C              2.16897137       4.63865752       9.24446260       0.01292145       0.02790078      -0.04322056      -0.39690671      -0.90072369       1.23657169      -7.22923542 F F F
 C              9.73568828       6.38019835       8.22515693       0.01594593       0.00640626       0.00070401      -0.61384372      -2.30634005      -0.72309782      -7.23774831 F F F
 C              2.27560276       6.07094228       9.56230984      -0.02736666       0.01663763      -0.02104838      -3.01989210       0.55946354       1.83605016      -6.76281520 F F F
 C              2.83899057       2.44361272       0.83425522       0.01104765      -0.01360011      -0.01144621       0.28466555       0.30873100      -0.76223292      -8.90992893 F F F
 C              6.03920258       9.66028401       7.87457244      -0.01062084      -0.00158077       0.02001968      -2.08004872       2.44582687       0.23016554      -7.52370696 F F F
 C              2.06632637       0.25685844       2.23758058       0.01586115      -0.00349214       0.00704445       1.73843748       1.01019799       0.57540442      -8.79558443 F F F
 C              0.81052567       5.81114362       8.93129947       0.01199263      -0.01689072      -0.01092209      -0.71061968       1.12119693      -1.63592146      -8.81448607 F F F
 C              2.26040946       0.76998691       3.80920377      -0.02287919      -0.00095724      -0.00653562      -1.44816545      -1.59806147       0.09955868      -7.24672205 F F F
 C              9.82109400       2.57893173       4.05583836       0.02378274      -0.03311107       0.01085712      -2.05821229       4.63024614       1.51279893     -10.29414978 F F F
 C              3.60202539       1.41207128       1.86460861       0.02422331       0.02083330       0.02332919      -1.31345888       0.06735575      -1.51577492      -7.56682222 F F F
 C              2.74859565       3.77406009       0.19363376      -0.00148232      -0.03431197       0.02207889      -0.94313270      -2.93742171       0.30253778      -7.74799937 F F F
 C              2.67312087       0.71069273       1.05558314       0.00756751      -0.00414532      -0.03090561       0.67925381       0.76653992      -2.23531741      -2.37482493 F F F
 C              4.68038417       6.76865574       9.16718029      -0.01396713      -0.02160996       0.00749571       0.73980335       0.46920028       2.41374265      -7.21693250 F F F
 C              5.17855270       0.70991111       7.74793187       0.01861992      -0.00280020      -0.01274868       2.33479274      -2.27050241       0.14447502      -6.14839960 F F F
 C              3.59906869       6.39894902       9.72955664       0.02877894      -0.00950738       0.04403447      -0.08557525      -0.08132458      -0.85247850      -8.61557149 F F F
 C              9.31789450       2.01201720       2.83335796      -0.05485774      -0.01650999      -0.01017474      -8.89288793       6.42126068      -9.76497008      -7.77215975 F F F
 C              5.76107592       7.59630844       9.13666921      -0.03730107       0.02519164       0.06110874      -0.09523502       1.36148309       1.09320983      -8.17745693 F F F
 C              8.62738679       6.39554098       7.43931296      -0.02469094       0.05058369       0.01701131       2.77289302       0.47720252       3.29960221      -7.61042046 F F F
      50
 Properties=species:S:1:pos:R:3:velocities:R:3:forces:R:3:local_energy:R:1:fix_atoms:S:3 Lattice="9.9905032156        0.0000000000    0.0000000000    0.0000000000    9.9905032156    0.0000000000    0.0000000000    0.0000000000    9.9905032156" temperature=5674.72696231 pressure=2144.65349988 time_step=0.5000 time=10.000000 energy=-217.218317 energy_soap=-232.35434779  energy_2b=12.91012216 energy_3b=2.22590843 energy_core_pot=0.00000000 energy_vdw=0.00000000 energy_exp=0.00000000 energy_xps=0.00000000 virial="-25.03882484         11.49104177    -11.28613411     11.49104177    -21.86464539     -0.21420376    -11.28613411     -0.21420376    -20.97666263" stress="0.02511030           -0.01152384      0.01131835     -0.01152384      0.02192706      0.00021482      0.01131835      0.00021482      0.02103654" volume=997.153669 step=20
 H              1.52696030       6.83370718       0.11294703       0.07759644       0.05401708       0.01237516      -0.03606774       2.22095337       2.54558769      -1.01838138 F F F
 H              7.55177644       4.11608088       6.48011246       0.07725996      -0.05986541       0.06281216       0.31259532      -0.27274557       2.53527560      -2.97107473 F F F
 H              8.87721866       3.49974730       3.07647687      -0.00073732      -0.03565902      -0.07674423      -0.00154956      -0.84178452       0.80580917      -1.27006656 F F F
 H              6.23817142       5.52013917       3.31945439       0.01940254       0.05083299      -0.00189047      -0.19988050       0.24584750       0.16000169      -3.04162885 F F F
 H              6.97940890       7.06254371       9.79009470      -0.11675383       0.04791815       0.03117875      -1.53771534       0.61756231      -0.26790491      -1.44658280 F F F
 H              6.50746958       8.95780935       8.96075943       0.15842734       0.08497706       0.04248260      -0.66864359       1.56610008      -0.02337580      -1.81750209 F F F
 H              3.32118281       0.43250855       4.29993592      -0.02068410      -0.01600042      -0.14329099      -0.30698538       0.63943978      -1.02879590      -1.73770803 F F F
 H              0.11872048       7.56484700       2.94515334       0.10685996      -0.06148228      -0.09371899       1.03465251       0.41999624       0.28338253      -1.34601214 F F F
 H              2.26447679       0.34321679       4.87680649       0.08795382       0.05147202       0.03936987      -1.86250235       0.45627688      -0.63766066      -2.59727115 F F F
 H              2.29128106       8.04301243       3.48710761       0.05817082      -0.03149519      -0.15462986      -1.78551553       0.33902496      -0.11598771      -2.99769646 F F F
 H              9.10600697       2.36949903       1.58770006      -0.08894179       0.02343202      -0.02087905       0.69609858      -1.55773388      -0.32654920      -2.54012213 F F F
 H              7.42881296       4.18809409       5.80408231       0.04898853       0.10014797      -0.00784502      -0.34202160       0.18970715      -2.43081984      -2.97045539 F F F
 H              0.55487973       3.44191125       4.44325137      -0.02859195      -0.04346338      -0.07796485      -0.84527969      -2.57159322      -0.66546295      -2.64769520 F F F
 H              5.48717372       6.05069455       5.92549083      -0.07288401       0.04533256      -0.03149792       0.05678992      -1.44635809       1.26822678      -3.06768200 F F F
 H              5.67302942       6.33207240       8.19872777      -0.00566736      -0.07104040       0.01457457      -1.46228063       0.21101717       1.85107114      -1.74635011 F F F
 H              1.48378281       8.31845111       3.37417823       0.07174043       0.01684793       0.05601778       0.60464299      -1.01246664       0.14257395      -2.29671682 F F F
 H              6.72998904       4.97483819       3.38881570       0.03386621      -0.00401332      -0.12164368       0.30043375      -0.34485458       0.09931960      -3.06090793 F F F
 H              5.49201080       5.51936010       6.60589614       0.00130355       0.09162977       0.03692702      -0.04438161       0.66099800      -1.33467890      -2.76168407 F F F
 H              2.37464320       5.07761012       2.71263737       0.07257410      -0.02386420      -0.01989512      -0.10342051       0.76972655       0.22547896      -2.95427476 F F F
 H              2.52813120       4.50903085       2.29864416      -0.03581738      -0.02358333       0.02515080       0.31113299      -0.61455620      -0.81436701      -2.86989817 F F F
 H              8.19882294       6.51559600       6.61237082       0.10325237       0.05322826       0.02331817      -0.07173464       0.95305382       1.76777500      -2.53031795 F F F
 H              5.28181934       7.66142076       4.67142773       0.04011124      -0.05774639       0.02981880      -0.03879900       0.48133648      -0.44695620      -2.87331724 F F F
 H              5.96536056       7.80029194       4.36539526       0.04169302      -0.03934610       0.00217143       0.00653640       0.16327789      -0.14434153      -3.00528242 F F F
 H              7.33232737       3.70123164       9.17157316       0.16906011       0.04824850      -0.09066268      -0.22559237       1.78666794       0.37017432      -2.91653709 F F F
 H              5.94383742       1.26072740       7.29192164      -0.08615074       0.10510304       0.00595335       7.58642354      10.89068493      -5.63106830      -0.62600148 F F F
 H              7.81959843       2.83645396       2.17653944      -0.07092080       0.00999812      -0.03334061      -0.11949872      -1.62251221       0.94824310      -2.34786971 F F F
 H              7.19973035       4.50513470       9.30861416       0.00120442       0.00238315      -0.05299765       0.34621110      -1.61235777      -0.55773491      -2.97787461 F F F
 H              6.42934773       0.25670935       1.35965189       0.03320272       0.00058618       0.12351384       0.40410895      -3.65381687       0.46657366      -2.69644094 F F F
 H              6.61444077       9.15822459       7.29330138      -0.03438448      -0.06291836      -0.02279973      -0.19652516      -0.22000301      -0.16850874      -2.26166713 F F F
 H              6.49984577       9.27753530       1.41594270      -0.13926971      -0.03659907      -0.05035038      -0.39309292       3.58563060      -0.55042264      -2.70659100 F F F
 C              2.78415271       0.18209115       9.61645075      -0.01079909       0.01248583      -0.00545672      -0.07125137      -0.57870167      -0.40625343      -6.75236892 F F F
 C              9.98918352       1.15664562       3.45072716       0.00539650      -0.02184939      -0.00095099       0.83701408       3.03533783       0.86947402      -6.35525431 F F F
 C              2.27910492       4.88163676       8.89604842       0.00792460       0.02322852      -0.02450772      -0.94195850       0.79101217       2.50887089      -8.03339047 F F F
 C              9.80755749       6.38025733       8.19186540      -0.00334810      -0.00338160      -0.00650387      -2.13784926      -0.28869259      -0.14146347      -8.39489019 F F F
 C              1.96647249       6.24024683       9.43292176      -0.02645612       0.01271341      -0.00687013       2.98200380      -2.98920425      -0.22220760      -7.35302022 F F F
 C              2.96649580       2.26080926       0.72360600       0.01602688      -0.03089455      -0.00643489       1.39034174      -4.45634200       1.87211564      -6.46319134 F F F
 C              5.93747228       9.63283241       8.07970448      -0.00617393      -0.01511669       0.02246473       0.79844343      -4.98937027       1.08601615      -7.77413794 F F F
 C              2.28245605       0.29442225       2.34405344       0.02555788       0.01172694       0.01423583       0.36353640       1.78570163       0.57784283      -8.21631288 F F F
 C              0.89084077       5.66842707       8.75076437       0.00427578      -0.01327689      -0.02574012      -1.18445684       0.11918071      -2.15533254      -6.39785877 F F F
 C              2.01055346       0.67813896       3.71816716      -0.02263064      -0.01682229      -0.01591370       1.31909640      -1.79554302      -1.85399292      -7.33122048 F F F
 C              0.01277744       2.36766886       4.18843945       0.01764845      -0.01410714       0.01297624       0.76746707      -0.07752237      -0.81144958      -7.43070669 F F F
 C              3.73068452       1.60138279       2.00213028      -0.00063599       0.01610802       0.00179918      -3.13701230      -0.55478130      -3.22202200      -7.47459736 F F F
 C              2.69880058       3.41923864       0.37393239      -0.00787271      -0.02534829       0.01008638      -0.66275275       4.08260213      -2.09557332      -7.56912123 F F F
 C              2.78173148       0.74108337       0.73820108       0.01404822       0.01366499      -0.02336809       0.87376069       3.58714096       4.14918384      -4.75212647 F F F
 C              4.67868466       6.62122279       9.25811498       0.01800338      -0.00349846       0.00791618       2.89971577       2.69208892       1.28700970      -6.10110027 F F F
 C              5.38572101       0.68465543       7.61954374       0.01229851      -0.00187767      -0.00949187      -7.65517507      -7.80031786       5.25682512      -7.50338376 F F F
 C              3.75220282       6.24523063       0.16511881      -0.00056461      -0.02243326       0.03810483      -1.84080995      -1.08218408      -2.76628089      -8.17554681 F F F
 C              8.71542642       1.97484863       2.56620858      -0.05574014       0.00557288      -0.03206820      -0.08208544       3.03571369      -0.49215988      -7.81935810 F F F
 C              5.40391794       7.83240390       9.76131862      -0.03325815       0.01578557       0.06067569       0.63994930      -2.33884335      -1.34171450      -8.75087722 F F F
 C              8.52771282       6.87120337       7.71207478       0.00409422       0.03889637       0.03063191       3.42388360      -2.60379440      -0.42374603      -6.46824341 F F F
      50
 Properties=species:S:1:pos:R:3:velocities:R:3:forces:R:3:local_energy:R:1:fix_atoms:S:3 Lattice="9.9905032156        0.0000000000    0.0000000000    0.0000000000    9.9905032156    0.0000000000    0.0000000000    0.0000000000    9.9905032156" temperature=5191.77556375 pressure=9240.09460472 time_step=0.5000 time=20.000000 energy=-216.324495 energy_soap=-232.43904487  energy_2b=12.67534280 energy_3b=3.43920721 energy_core_pot=0.00000000 energy_vdw=0.00000000 energy_exp=0.00000000 energy_xps=0.00000000 virial="-19.27233732         -1.53057766     -3.52968899     -1.53057766    -16.77430611     -0.06564161     -3.52968899     -0.06564161    -12.46765229" stress="0.01932735            0.00153495      0.00353976      0.00153495      0.01682219      0.00006583      0.00353976      0.00006583      0.01250324" volume=997.153669 step=40
 H              2.16762176       7.35560604       0.23652428       0.02836622      -0.00295417      -0.05574874      -1.06420751      -1.18312851      -2.01333964      -1.72398109 F F F
 H              8.06237658       4.00170240       6.28843709       0.03705281      -0.02431171      -0.08479804      -0.32551486       1.05120999      -0.84697505      -2.85465129 F F F
 H              8.82677779       2.79695853       2.69510238       0.02593031       0.03858931       0.03193987      -0.74023343       2.82936934       0.68421852      -2.62746763 F F F
 H              6.82013994       5.51557230       3.15722033       0.07587351      -0.02361709      -0.02342186      -0.03831241      -0.21478389      -0.75421223      -2.98995670 F F F
 H              6.30993417       7.71116824       0.16889918       0.13957721       0.04706965       0.03987188      -1.43099710       0.62617491       0.18598260      -1.71165094 F F F
 H              7.11300485       0.18320703       8.80347877      -0.06483849       0.09255817      -0.08097163      -2.22466112      -1.81639974      -0.93485960      -1.72343574 F F F
 H              3.20797968       0.25516259       3.13370776       0.09822941      -0.06925976      -0.02506081       4.26614317      -2.23306966       2.25727156      -0.33735557 F F F
 H              1.48144582       7.03820584       2.06546137       0.16228504      -0.05224414      -0.09433075       0.17831334      -0.09756772       0.17464752      -2.62194563 F F F
 H              2.30878930       0.97655574       4.65112768      -0.07171384       0.05511739      -0.09730702      -1.29760813      -0.75980800      -1.46833124      -2.02922459 F F F
 H              2.09711232       7.94011100       2.56919402      -0.06635336      -0.00595932      -0.01542532       0.39986376       0.03519721       0.97715553      -1.67727575 F F F
 H              8.62960675       1.85143489       1.21283203      -0.05903983      -0.09943573       0.00971235      -1.46985128       0.24228133       1.92607924      -3.40353697 F F F
 H              7.99930109       4.80748472       6.44558237       0.05401093       0.08406436       0.08130722       0.09824364      -0.86362383      -1.32285829      -2.88555575 F F F
 H              0.52468365       3.25796325       3.76594846       0.01403893      -0.02817482      -0.02173513      -0.35006386      -2.10157475       1.81972178      -2.18511883 F F F
 H              4.80372497       5.92067727       6.22723889      -0.03342940      -0.02114196       0.08521580       2.20525017       1.37839684       1.24265650      -2.80939610 F F F
 H              5.10868077       5.74146026       9.01202591      -0.02655146      -0.10834351       0.04230749       1.42377805       0.00160606      -1.49063343      -1.82844327 F F F
 H              2.59136595       8.00752087       3.34050488       0.12884504      -0.04822761      -0.06767974      -0.59902976       0.04473188      -0.55016017      -3.06171353 F F F
 H              6.76645238       5.29986933       2.42084932      -0.00469101       0.04002764      -0.08445757       0.23510932       0.02314709       0.80603936      -2.95323707 F F F
 H              5.51757280       6.39656139       6.51978214      -0.03474323       0.05441408      -0.02944866      -2.35147078      -1.61550972      -0.43033162      -2.90703996 F F F
 H              2.92359034       4.82852361       2.42417698       0.05666031      -0.02870050      -0.04652844       1.98330350       1.68721021      -0.06415796      -2.87759055 F F F
 H              2.42256475       4.38752902       2.40447461      -0.00768476       0.00101561       0.01258550      -1.89372926      -1.67029694      -0.09291069      -2.83891731 F F F
 H              8.74662208       7.29476225       6.77335787       0.00352955       0.09988960       0.01671300      -0.82438486       0.27671090       1.58476057      -1.92855297 F F F
 H              5.71868031       7.52093437       4.63228717       0.03988124       0.02001102      -0.02880275       0.31308147       0.31807272      -0.45908735      -2.97521495 F F F
 H              6.41408882       7.55561253       4.30589095       0.05827846      -0.00806881      -0.01831030      -0.18083709       0.13329075      -0.02762946      -3.03433012 F F F
 H              8.45652113       4.71059862       8.53969527       0.03474973       0.11417197      -0.01750203      -1.52379713      -0.91707233       1.30403728      -2.53855114 F F F
 H              5.58432369       2.50665674       7.08798167      -0.02718147       0.00628235       0.00706194       0.37779376      -2.16044863       0.47024883      -1.05517942 F F F
 H              7.05577723       2.15307316       2.31308172      -0.09828494      -0.10124774       0.04061685       1.34683343       0.35036497      -0.01497830      -3.57179884 F F F
 H              7.78710431       4.18951031       8.58119407       0.13852174      -0.02231540      -0.06718403       1.40335223       1.00117338       0.99087148      -2.81817003 F F F
 H              6.17505892       9.24318728       1.92579867      -0.11629628      -0.09450510      -0.04141338      -1.24145537       2.12322241      -1.17936678      -2.76048050 F F F
 H              6.05066670       8.57849968       7.57548216      -0.05495128      -0.05553177       0.09860151       0.79185458      -0.60198643       0.85220281      -2.53462983 F F F
 H              5.77404671       9.92290479       1.50732665       0.01838381       0.05997068       0.10072430       1.07870957      -1.82622899       1.40510720      -2.82354253 F F F
 C              2.66840987       0.24588163       9.48893150      -0.01244275       0.00148301      -0.01787746       0.13957673       0.37570767       1.15853822      -7.61875033 F F F
 C              0.10634553       1.05583957       3.50065431       0.01787603      -0.00649254       0.00928777       1.81765594      -2.58533998      -0.50253999      -6.61106954 F F F
 C              2.32337861       5.14131514       8.75460589       0.00195261       0.02802047      -0.00509597      -0.45293228       0.35998152       1.83732544      -6.92607876 F F F
 C              9.73870243       6.32763569       8.16562393      -0.00631787      -0.00822720       0.00252363       1.02514849      -0.77023008       0.98388102      -8.47520538 F F F
 C              1.78785673       6.32143260       9.40654964      -0.01027123       0.00736906       0.00305614       1.81241144      -0.01530506       1.12664704      -7.41248528 F F F
 C              3.16346691       2.01860445       0.68341824       0.02473313       0.01064592      -0.00711792       1.40860983      11.75639108      -2.99087341      -1.34421731 F F F
 C              5.94609898       9.44359248       8.28549011       0.00667340      -0.01095939       0.01562063       0.25082380       4.37113074      -1.02873353      -7.29268627 F F F
 C              2.51577583       0.45448295       2.44748399       0.01838091       0.01836413      -0.00000487      -1.95025793       0.43032417      -3.00541863      -8.82554679 F F F
 C              0.89143738       5.58473187       8.44769798      -0.00344352      -0.00041768      -0.03082297      -0.49598969       2.19541879       0.44634737      -6.36424778 F F F
 C              1.80619830       0.48549621       3.54931476      -0.02560674      -0.01675310      -0.01406177      -2.49638521       1.60694697       1.03736495      -8.56438524 F F F
 C              0.17389808       2.09701199       4.24401621       0.01504353      -0.03074203      -0.00119770       0.05533561       4.24767930      -0.31568812      -7.37451535 F F F
 C              3.64971243       1.74552741       1.92032440      -0.01066886       0.01302080      -0.01381224       0.46622062      -0.50848281       0.32144507      -9.54911980 F F F
 C              2.62295468       3.26614906       0.41484670      -0.00546423      -0.00997451      -0.00047126       0.70673765       1.08232688      -1.16507692      -9.14615922 F F F
 C              2.91740464       0.89990313       0.70746870       0.00736514      -0.00644840       0.01438470      -2.73423027      -9.55054425       1.89077714      -4.35115837 F F F
 C              4.84858942       6.65618282       9.45972106       0.00326749       0.01354802       0.04058546      -4.02581244       1.58905305       4.82587056      -6.79281571 F F F
 C              5.48895428       0.62358591       7.60058237       0.01295507      -0.00554989       0.00452723       0.50487069      -0.68097517       1.76998980      -6.66527470 F F F
 C              3.75417083       6.00862468       0.39326509       0.00308830      -0.02217408       0.00835906       0.13070442       0.65371758      -2.44020552      -8.29439638 F F F