      50
 Properties=species:S:1:pos:R:3:velocities:R:3:forces:R:3:local_energy:R:1:fix_atoms:S:3 Lattice="9.9905032156        0.0000000000    0.0000000000    0.0000000000    9.9905032156    0.0000000000    0.0000000000    0.0000000000    9.9905032156" temperature=5354.66091594 pressure=53055.85876954 time_step=1.0000 time=1000.000000 energy=-254.185698 energy_soap=-356.14852635  energy_2b=97.94983288 energy_3b=4.01299588 energy_core_pot=0.00000000 energy_vdw=0.00000000 energy_exp=0.00000000 energy_xps=0.00000000 virial="4.66437108            8.27116231     -8.37584450      8.27116231     19.96984267      1.94685216     -8.37584450      1.94685216      6.59757054" stress="-0.00467769          -0.00829477      0.00839975     -0.00829477     -0.02002685     -0.00195241      0.00839975     -0.00195241     -0.00661640" volume=997.153669 step=1000
 H              6.63906501       8.72736405       2.22693511      -0.08535768       0.12451766       0.05491471       1.59408816      -2.06028375      -0.05638458      -2.30443593 F F F
 H              2.64830661       4.19410758       3.23707972       0.00063861      -0.02650201      -0.09126841       3.79838423      -2.47836815       1.02466436      -2.35797105 F F F
 H              3.39897830       9.89804616       3.14180955       0.05270294       0.02315181      -0.10489097       0.50738957      -0.64496506      -0.16975698      -2.36490130 F F F
 H              9.05308739       2.84887869       5.16511122       0.02953304       0.06427590       0.06719770       0.12641124       1.66892404       0.13267470      -3.41270135 F F F
 H              1.82482880       8.85364605       5.04332321       0.00946026      -0.04809649       0.01756469       0.16241050       0.19258605      -0.41142153      -2.98106104 F F F
 H              7.57864060       0.76586151       3.48205429       0.00601331       0.10957080       0.13775672      -0.76793631       0.70814706       1.78903980      -1.79068661 F F F
 H              7.68461231       9.24804155       9.84898762       0.02107632      -0.06053557       0.07703310       0.03542069      -0.36217078       0.88136665      -0.56252054 F F F
 H              4.04781826       8.92975245       2.79008974      -0.02900329      -0.05569428       0.01642563       0.30423543      -0.06058330       0.12093677      -1.65029583 F F F
 H              5.80182946       0.44271229       6.48144342       0.04124931      -0.01075533       0.04589632       0.04862394       0.43588577      -0.64014913      -1.73483902 F F F
 H              8.06747440       0.19302653       2.36762004      -0.09676503      -0.02576055       0.04679707       0.26091866       1.51083993      -1.27728181      -1.40365068 F F F
 H              5.80478312       5.93221455       2.34430493      -0.03845367      -0.01861230      -0.02303665       2.28354756      -0.06661713       1.10799253      -3.01115500 F F F
 H              2.00877900       9.01529148       5.70955456      -0.06243576      -0.07993294       0.00847536       0.12170986       0.17778298       0.38973182      -3.01027791 F F F
 H              7.25771601       1.48464766       3.89538842      -0.02894866       0.06825909       0.11918897       0.13232935      -0.42508593      -0.18758844      -3.39303834 F F F
 H              6.13280474       9.65640124       7.31439817       0.04772515       0.09001923       0.03170506       0.17559599       0.42446415      -0.56464241      -2.60292219 F F F
 H              4.87326820       6.66655013       6.77901757       0.07540695       0.08707306      -0.01407386      -0.14853965      -0.43004615       0.37287163      -2.97538571 F F F
 H              4.87389631       8.53853247       2.35384734       0.12631090       0.02900331      -0.07902094      -0.84760904       0.30902733       0.54131037      -3.01919349 F F F
 H              5.95646937       0.88292839       5.51652475       0.02949524      -0.09599342       0.02256892       0.34264510      -0.78983556       1.23840982      -2.99535422 F F F
 H              6.62641282       5.66868521       2.81889556      -0.20315208       0.07100325       0.03332011      -2.71876786       0.96549113      -1.42655073      -2.41436134 F F F
 H              4.52931160       6.28952273       7.33895548       0.05530116      -0.00475090      -0.01457994       0.19811403       0.20066703      -0.45788907      -2.94072982 F F F
 H              7.93682952       9.78453406       7.92406536       0.08873646       0.09657909      -0.11350456       2.11875241       0.48616946       0.94048637      -2.63722405 F F F
 H              8.81984910       9.95680909       8.50622886       0.01265352      -0.03297796       0.08609496      -1.95100896      -0.64535786      -2.75701816      -2.38774991 F F F
 H              7.95187433       5.27438961       2.22996123      -0.02672937       0.05549785       0.03481332       1.86022697       2.40883029      -0.89525095      -2.30405815 F F F
 H              6.00600228       4.87076305       4.52787605       0.09491597       0.04072198       0.16520237      -1.66069100      -1.18644476       0.49199162      -2.78994807 F F F
 H              7.43379296       1.40510381       9.46931400       0.06367095       0.01320129      -0.00548359      -0.18466383       3.01268280      -2.24731374      -3.11108244 F F F
 H              5.33097655       4.35311723       4.55047695      -0.10785522      -0.17796442      -0.03421942       1.33615922       1.15688260       0.08039896      -3.04498244 F F F
 C              1.20175556       4.06812675       9.82212152       0.00599918       0.00893698      -0.01384509      -1.62168167       3.07367373       4.51216318      -8.29553951 F F F
 C              9.46014477       3.93360854       5.23313150       0.02773869       0.00827182      -0.00610240      -4.90184895      -6.07519405       1.19003112      -8.48882306 F F F
 C              1.01559646       9.85807797       0.82512430       0.01243259      -0.00686705      -0.02281595      -0.69282744      -2.08168053       1.81174857      -7.60745420 F F F
 C              0.99796899       5.22968689       4.04319489      -0.03209203      -0.01795269       0.00067879       1.14652631       1.46342607      -1.53250978      -8.76203869 F F F
 C              0.92341579       5.07945910       1.70951748       0.01618652      -0.01744216      -0.01611871       1.55786788      -0.10200834       2.45036022      -8.80498521 F F F
 C              8.70026151       8.73197693       1.00533219       0.00769417      -0.00801612      -0.02310687      -2.08601244      -1.09863636      -0.16433481      -9.57632759 F F F
 C              1.97762359       2.53654269       8.25216127       0.01842209       0.01957481       0.00666262      -1.11495902       2.01224464      -0.98429503      -8.15314886 F F F
 C              1.03988833       7.42268543       1.41343882      -0.01318765      -0.01518539       0.01271329       2.65143041      -4.08113704      -1.82225474      -5.84153448 F F F
 C              1.98467762       5.31885497       9.93720864       0.01624188      -0.00709155       0.00773534       0.81821834       0.82697346      -0.84982025      -6.63004264 F F F
 C              2.00144639       4.96848902       3.21046950      -0.03317514      -0.00855023       0.01176441      -5.03816240       2.34429126      -1.72625600      -7.44697407 F F F
 C              7.98402431       7.97030363       1.94606608      -0.01961079       0.01142428      -0.02607769      -1.06153940      -0.58702954      -1.43615461      -7.78328027 F F F
 C              9.92619837       6.95631024       2.27555997       0.01889394       0.00226873      -0.00365514       4.27274778      -3.35333781       2.81828277      -8.45073006 F F F
 C              1.81815710       4.17217094       7.55686898      -0.04427428       0.00149565      -0.01226861       0.07645536      -1.74861545      -3.62087335      -6.80482305 F F F
 C              0.63635343       8.61745927       1.65914739      -0.00148543       0.01175278      -0.00857896      -0.06587259       6.48605894      -1.39003242      -8.11198860 F F F
 C              0.36054703       4.78067881       5.13664570       0.01005977      -0.00762983       0.00860308       5.78099319       1.90953075       2.69041350      -3.28148075 F F F
 C              1.86785937       6.30504371       0.92458066      -0.01300641      -0.03956554       0.00250038      -0.96074885      -0.18930022       0.40271268      -7.62383003 F F F
 C              8.41466693       0.21911424       0.78260087       0.00004084       0.02345902      -0.00912103      -1.18753416      -0.20933735       2.36711493      -6.67311631 F F F
 C              9.71170773       0.66226789       0.93661671      -0.03031305       0.02608462       0.00917044       2.94482377       3.09745639      -2.31959374      -7.57388401 F F F
 C              0.54140587       1.63920580       0.04644670       0.02196860       0.00241355       0.00081739       0.26587507       1.68378946       0.09975718      -9.69554834 F F F
 C              2.28109379       4.90396282       8.56129922      -0.00240144       0.00356161       0.01858458       2.03184798       3.37412495      -0.25927597      -8.23277973 F F F
 C              7.30329033       0.77045287       0.25712988      -0.00501085      -0.01907303       0.00277286       0.25349638      -1.88898762       1.56913511      -8.00681411 F F F
 C              1.60479601       3.52695583       1.63470040       0.00451013       0.01719156       0.03562988      -1.57729393       1.06990571      -2.20577561      -7.09577723 F F F
 C              1.54233937       4.37698038       6.22106805       0.03441581      -0.01580069       0.00667767      -1.71773261       0.26274990      -0.43095384      -9.74942780 F F F
 C              1.22222075       2.85462344       9.48155222      -0.00220253       0.01143210       0.00527682      -0.51898541      -8.53472321       0.21349450      -5.25180858 F F F
 C              8.75254683       6.55869867       1.94970754      -0.00425187      -0.00448100      -0.02867355      -6.38282985      -2.16285995       0.59628850      -7.04301398 F F F
