      50
 Properties=species:S:1:pos:R:3:velocities:R:3:forces:R:3:local_energy:R:1:fix_atoms:S:3 Lattice="9.9905032156        0.0000000000    0.0000000000    0.0000000000    9.9905032156    0.0000000000    0.0000000000    0.0000000000    9.9905032156" temperature=6298.02468754 pressure=30787.65928774 time_step=0.5000 time=0.000000 energy=-218.381399 energy_soap=-261.94650552  energy_2b=42.92527922 energy_3b=0.63982747 energy_core_pot=0.00000000 energy_vdw=0.00000000 energy_exp=0.00000000 energy_xps=0.00000000 virial="-8.03249056           9.55820634    -11.34855487      9.55820634    -21.23742459     -7.76341812    -11.34855487     -7.76341812      6.97419188" stress="0.00805542           -0.00958549      0.01138095     -0.00958549      0.02129805      0.00778558      0.01138095      0.00778558     -0.00699410" volume=997.153669 step=0
 H              7.53689687       1.02633732       1.93963439      -0.02176541      -0.14092314       0.03849935       3.09379685       3.70102714      -2.94982409      -2.91609099 F F F
 H              4.06272700       4.01661702       8.63658131       0.04479080       0.00642527      -0.01858217       1.00586557      -1.34167367       0.97079287      -2.69307080 F F F
 H              1.23267161       0.45231698       3.92543766       0.00636967      -0.04626363       0.13348391       2.00087309      -0.57885304      -1.83499464      -2.88037859 F F F
 H              6.08747748       9.27944697       7.31137977       0.05663970      -0.05118370      -0.03226108       1.45603948      -0.49988156       2.36948060      -2.29677733 F F F
 H              8.20051906       6.79650144       9.78333404       0.05897784      -0.00782784      -0.06143376       1.14901163      -0.82721987       0.45248461      -2.97166621 F F F
 H              4.29400427       6.21517448       5.05861803       0.02815157      -0.19579405       0.01571679       0.91634560       2.00388096       0.16057537      -1.71902604 F F F
 H              0.93130448       6.77248750       6.88732524      -0.02428404       0.07269612       0.03447559       1.67428573       0.55944248      -1.64616736      -1.68024489 F F F
 H              8.38950981       9.83920727       7.95129796       0.04633439       0.04148639       0.06900470      -0.27129764       1.46030942       0.80128049      -1.53529406 F F F
 H              6.68601159       8.92230990       8.26925916       0.00691851      -0.02759072      -0.08272605      -0.44664513       1.40112801      -2.37882102      -2.05549467 F F F
 H              1.03660057       9.36908503       9.46236709      -0.19258465       0.08141316       0.15426259       0.26661151      -0.32406605       0.14426544      -1.26432446 F F F
 H              8.86300333       6.25169997       9.87537271       0.02593471       0.03665719       0.02048306      -0.86219899       1.11487912      -0.30608643      -2.70222200 F F F
 H              1.36901114       4.65121681       3.30023837       0.10434458       0.01743380       0.07384769       0.65840811       1.04396688       1.75761213      -2.20492205 F F F
 H              7.01100438       1.59940485       9.75545104       0.07390846       0.02394299       0.06088874      -0.30913755       0.33835243      -1.01679235      -1.98326101 F F F
 H              7.15492736       3.69061547       6.82000034      -0.05071760      -0.02945564      -0.01171623       0.74138597       0.55799182       0.14648122      -2.86543220 F F F
 H              1.22896839       1.56017336       6.94765364      -0.00722309      -0.08013996       0.10591297      -1.36993002       1.11069028       1.93367857      -2.36432321 F F F
 H              4.39421868       3.38391861       9.04986852      -0.01799501       0.04139840      -0.00541441       0.42461072       1.20563743      -0.79327181      -2.98281074 F F F
 H              7.18466743       0.62070243       2.26783826      -0.00463158      -0.11138212       0.06002038      -3.37561112      -4.40486795       3.40892757      -2.96867773 F F F
 H              7.86624829       8.24992684       2.07514519      -0.11620727       0.08765487       0.06324879      -0.29742167      -0.16463160       0.24024527      -1.03891686 F F F
 H              9.42314166       3.85542884       2.10351820      -0.05874361      -0.08143785      -0.04881314       1.52062564      -0.48581519      -0.36080814      -1.44905151 F F F
 H              7.74790340       7.73889760       4.62699914       0.08840882      -0.09573876       0.02584768       2.01867453      -1.63113931      -0.43894413      -2.98849993 F F F
 H              5.99991603       8.24146645       5.63341370       0.12479349       0.04393236       0.04452428      -1.01937875      -1.27085945      -0.44432302      -1.24134559 F F F
 H              7.20920615       5.82384544       2.22773619      -0.06019471       0.05498827       0.02366827      -1.08375433       1.76353891      -1.68360979      -2.98503147 F F F
 H              2.23831634       3.60829742       8.64418737      -0.01875623       0.00641892       0.01062820      -1.20526603      -0.87174876      -0.90519153      -1.27428623 F F F
 H              7.05882323       2.88949714       8.75406756      -0.17479249       0.06619872       0.00999865      -0.46624951      -1.48883238       0.57483729      -1.90666658 F F F
 H              1.83570383       0.34279787       3.31572251       0.02087251       0.01355807       0.14668625      -2.01326697       0.26335224       1.78683825      -2.89001000 F F F
 H              8.44939857       0.96365885       9.87093254       0.04090458      -0.10762377       0.06116670       0.65778172      -0.40462352      -1.11868210      -2.28189211 F F F
 H              1.48682042       1.25218743       0.81345151       0.13165741       0.19109809      -0.02596429      -1.18004424       1.74521968      -0.96843488      -1.42689745 F F F
 H              6.82913723       6.37161547       1.64153016      -0.06399006       0.01211232      -0.01166452       1.63654711      -1.39223974       1.99715904      -2.96770014 F F F
 H              8.43942228       7.21002782       4.63587526       0.05098670       0.09697196       0.06216582      -1.97465179       1.56664401      -0.32402894      -2.95174906 F F F
 H              7.76533922       4.04271333       7.14293091      -0.10058763      -0.00700447       0.09301068      -0.46037849      -0.57638117      -0.55689571      -2.86181709 F F F
 C              4.94550461       8.04455222       9.11154790      -0.00637244       0.02004290       0.01443697      -3.43497391       2.54163843       4.03791708      -7.38656302 F F F
 C              1.20242529       7.44587112       8.89396038       0.01795235       0.00089986      -0.03407294       1.46974075       0.05172216       2.69116813      -7.61017698 F F F
 C              2.73810602       7.13225507       8.73514489      -0.01433383       0.03767276      -0.02698702      -1.56296472      -1.49286845      -3.28904747      -6.45701318 F F F
 C              2.26110345       7.08304907       7.12750107       0.00749674      -0.01295200      -0.00362108       0.06208321       0.22473478       1.44327186      -7.56903953 F F F
 C              2.27159818       8.06481068       0.67086087       0.00585614       0.00307229      -0.02202882      -7.30142153       0.73993530       1.40045397      -6.06275384 F F F
 C              0.59315445       4.02802008       0.21700683       0.03180423       0.00266744      -0.02011837       0.57190006       0.19560463      -0.61314948      -5.06249645 F F F
 C              4.87442003       7.54667304       6.58094039      -0.03641206       0.00257260       0.00342771       2.65420267      -0.10688660      -1.48722341      -5.56752403 F F F
 C              1.01202882       3.54818283       1.62045589       0.00484040      -0.00159532       0.00542191      -0.44105289       0.43738686       1.32901403      -9.37294943 F F F
 C              5.19626394       9.30674429       9.88252238      -0.02425396      -0.02895748      -0.03343569      -2.18046348      -3.58966050      -1.54947209      -5.30489935 F F F
 C              0.38956365       2.02345313       7.81037299      -0.01759332       0.00458573      -0.01116461       3.03137172       0.96467422      -1.57377159      -8.39202568 F F F
 C              0.57369695       2.47275630       9.84818180       0.02497974       0.00092520       0.02096242       1.03990747      -1.47218885       3.78734966      -9.01760571 F F F
 C              1.95074374       5.83519044       8.89790371       0.00546628      -0.01913636       0.00904586      -0.16263657       1.28375607       0.72948337      -8.18317957 F F F
 C              0.48495559       5.39894933       9.98402868      -0.00687965      -0.01295975       0.01919567       0.89384056      -0.80584759      -0.59117740      -8.89089877 F F F
 C              1.86328166       3.90544408       2.66779368      -0.01214643      -0.01439887      -0.00338909      -2.30294238      -0.86940840      -2.72926575      -6.59010205 F F F
 C              0.59660307       3.41047721       8.81131103      -0.01549319      -0.04399032      -0.01976933       2.37773102       0.98029277      -1.59997672      -7.57220312 F F F
 C              3.43548380       8.07392033       0.25146477      -0.01669074       0.03469560       0.00672011      10.12482658       0.78056165      -3.77816240      -7.29878853 F F F
 C              4.24153916       7.53413285       7.62251693       0.00416660       0.01202953       0.01508682      -4.27465731      -0.32679342       7.98007658      -8.90121871 F F F
 C              8.31411459       1.24511261       8.77258257       0.04438172      -0.00361701      -0.00508303      -5.69739710      -4.21044752       4.87923291      -9.39726717 F F F
 C              4.64309910       7.65080251       5.34238654      -0.01724980       0.00421467      -0.00916994      -0.86641981      -1.13524059      -5.66130911      -8.82559059 F F F
 C              9.09323821       1.71922884       7.98376672       0.02068975       0.02162723       0.00969190       3.11369462       2.23580747      -4.42319498      -6.57122210 F F F
      50
 Properties=species:S:1:pos:R:3:velocities:R:3:forces:R:3:local_energy:R:1:fix_atoms:S:3 Lattice="9.9905032156        0.0000000000    0.0000000000    0.0000000000    9.9905032156    0.0000000000    0.0000000000    0.0000000000    9.9905032156" temperature=6021.82108111 pressure=27722.51933405 time_step=0.5000 time=10.000000 energy=-219.877863 energy_soap=-271.87884160  energy_2b=51.88287727 energy_3b=0.11810083 energy_core_pot=0.00000000 energy_vdw=0.00000000 energy_exp=0.00000000 energy_xps=0.00000000 virial="-8.42614282          -4.36569549     -0.83801728     -4.36569549     -3.52937797     -0.59821393     -0.83801728     -0.59821393    -12.56439372" stress="0.00845019            0.00437816      0.00084041      0.00437816      0.00353945      0.00059992      0.00084041      0.00059992      0.01260026" volume=997.153669 step=20
 H              7.51090142       9.96796556       2.10851756       0.01772252      -0.06325667      -0.01131012       0.05543538       0.34192921       0.21724132      -2.94637591 F F F
 H              4.55729522       4.18378568       8.37983670       0.02282198       0.02027675      -0.02511689      -1.06019367       0.65669851      -0.97676035      -3.33546066 F F F
 H              1.41418074       9.91717974       5.14637428       0.04448677      -0.01804548       0.10182033       0.52674035       0.74650680      -0.23671185      -2.99532703 F F F
 H              6.44534655       8.98700795       6.85946766       0.03339631      -0.04168243      -0.04580588       1.21556134      -1.67312577       0.90668121      -2.12657561 F F F
 H              8.75808242       6.80640309       9.32491296       0.06555836       0.01114588      -0.00732790       0.22912689       0.27845846       0.60398986      -2.94060344 F F F
 H              4.71481288       5.43081577       5.45785097       0.03504137       0.03240688       0.06056282      -0.31492051       2.15778272       0.37745088      -1.04207899 F F F
 H              1.32455789       7.43594828       6.42502800       0.09704274       0.03803128      -0.11802972       1.42883947      -0.76823505      -0.82440849      -2.05863460 F F F
 H              8.50537151       0.02886571       8.52573307      -0.04212804      -0.10964682      -0.02246401      -1.15047085       0.05290829      -0.96207278      -2.56091355 F F F
 H              7.12160616       8.73028741       7.96036796       0.03497799      -0.01094638       0.00265336      -1.67181591       0.47271120      -1.34095481      -2.28162467 F F F
 H              9.13804339       0.14437352       0.99247452      -0.18192199       0.07727187       0.20030212       0.52622458       0.02024937       0.63451409      -2.94214774 F F F
 H              9.13512147       6.68894246       9.97821578       0.01378746       0.04427740      -0.03215416      -0.16300032      -0.13827833      -0.85702062      -2.67272750 F F F
 H              2.55145367       4.29686379       3.63266838       0.06688453      -0.11315693      -0.07487080      -2.36150541      -1.22646666      -2.28386481      -2.31923213 F F F
 H              7.85615995       1.83180878       9.69930492       0.11340506      -0.00747024      -0.08267256       0.65643502      -1.15575040      -1.35123385      -2.53478591 F F F
 H              6.92882614       3.63884556       6.98416863      -0.02277203       0.00666781       0.05191507      -0.60465990       0.03829233       0.85886313      -3.05888767 F F F
 H              1.09752020       1.08593834       8.10226134       0.01088579      -0.03926716       0.05367619      -0.05107967       0.26927797      -2.08272067      -1.26857318 F F F
 H              4.72775783       3.64327982       9.04282367       0.04343258       0.02568592      -0.00936450      -1.21723025      -0.04935779       0.86901768      -0.63193649 F F F
 H              7.18491773       9.24772793       2.94949579       0.05435823      -0.08312647       0.08585293      -0.02357674      -0.35471032      -0.02816315      -1.40498581 F F F
 H              6.48662712       8.75921443       2.85100388      -0.18868230      -0.06340072       0.08580141       0.12788655      -0.43840973       0.92959863      -3.33006545 F F F
 H              9.68552406       2.95434596       1.59435276       0.07202918      -0.08192943      -0.02399686       0.04196406       0.14795655       0.69519249      -0.87418798 F F F
 H              8.61404907       7.22125284       4.76553201       0.15877008       0.03827144       0.04055606      -0.47877366      -0.21906534      -0.36370919      -3.02925264 F F F
 H              6.74658562       8.20250560       5.69139426       0.03997851      -0.01470740      -0.01385276      -1.01788126       0.79679489       0.72722072      -2.11552735 F F F
 H              6.66180264       6.58685539       2.39633965      -0.05351941       0.08423856      -0.02835122      -0.28070023       0.03387439      -1.64393215      -3.01312949 F F F
 H              1.91477392       3.26465924       8.07944668      -0.02835035      -0.04684465      -0.12470905      -0.09264093       0.41476576      -0.87986904      -0.90761496 F F F
 H              5.38461990       3.01067164       9.26123835      -0.14492417      -0.03295691       0.09953037       0.74586219      -1.18684680       1.12060169      -3.24954149 F F F
 H              1.90940924       0.45071925       4.88819149      -0.02757679      -0.02593126       0.16993550      -0.83701403      -0.64146109       0.41741315      -2.96282670 F F F
 H              9.16072811       9.98837725       0.24326278       0.09680384      -0.08451166       0.03469534       0.46049412       0.17266168       0.57744210      -2.44185620 F F F
 H              2.42325095       2.92409200       0.18848919       0.10044297       0.09399590      -0.07508509       0.76786201      -0.68531796       0.18790621      -0.66865396 F F F
 H              6.47125389       6.49372668       1.62015185      -0.00606328       0.02064977       0.04350384       0.61751599       0.02216370       1.56813798      -2.95327119 F F F
 H              8.97650561       7.77051671       5.07054330      -0.02880239      -0.02342995      -0.00311217       0.30031384       0.41179837       0.20390065      -3.06684953 F F F
 H              6.59545840       3.62701203       7.69531388      -0.09732028      -0.05697113       0.00095849       1.59355215      -0.06011048      -1.62795416      -3.07737375 F F F
 C              4.72639054       8.03072065       9.18489277      -0.03717883      -0.04096704      -0.01333894      -1.11660063      -1.21448273      -1.02141599      -4.18901721 F F F
 C              1.40321631       7.46004121       8.67730003       0.01303020       0.00047959      -0.00708362      -4.70223600       0.06147259       4.14498853      -6.66880535 F F F
 C              2.60431358       7.42896622       8.42405670      -0.00216938       0.02082350      -0.03080077       5.17984839      -2.13705407      -0.09854998      -3.55052004 F F F
 C              2.31490167       6.99712101       7.12027940       0.00122186      -0.00084392      -0.00069418      -1.25223921       2.43743075      -1.17460631      -9.49803770 F F F
 C              2.09139051       8.09470271       0.45444191      -0.02051781       0.00097835      -0.02942980       2.33274982      -0.92810594      -3.35634731      -6.29334306 F F F
 C              0.88369529       4.09541764       0.02157377       0.02565746       0.01166179      -0.01682257       0.47434747      -0.82522935      -0.15282640      -6.57488612 F F F
 C              4.54615892       7.55630844       6.52540696      -0.03444903      -0.00123071      -0.01242240      -0.86328521      -0.70007494      -1.65962771      -7.98168940 F F F
 C              0.99082021       3.55868816       1.70588893      -0.01517996      -0.00092546       0.00292376      -3.49717195      -2.10426450      -2.83543209      -8.66052214 F F F
 C              4.94294714       9.20284921       9.67624717      -0.02159559       0.02847223       0.00249067      -0.73102573       1.54954889       1.83780034      -6.41112860 F F F
 C              0.49896486       2.12291519       7.63636365       0.03534029       0.00954261      -0.01976245       1.93679014      -2.84479674       0.36142318      -6.13687582 F F F
 C              0.86628217       2.44872501       0.18500097       0.03322165      -0.00006577       0.03905434       0.60867439       2.04612387       1.23308032      -8.47817226 F F F
 C              1.98253940       5.71927558       9.01285100      -0.00285056      -0.00654458       0.01499610      -2.15030842      -0.36458999       1.40840698      -9.61949694 F F F
 C              0.47510897       5.24918521       0.15771781       0.00620975      -0.01343432       0.01257223       1.47558105       2.32625372      -1.10181306      -7.50749013 F F F
 C              1.69933588       3.81602296       2.64938308      -0.00826877      -0.00022621       0.01055753       4.26805728       1.77967106       3.27790806      -7.52705700 F F F
 C              0.52948398       3.04249606       8.58850445       0.00135890      -0.02777511      -0.01930741       1.87992607       3.22255662       2.35209523      -9.39549323 F F F
 C              3.56797088       8.44110623       0.19981566       0.02194650       0.03773693      -0.00903383      -0.93869056       0.50428820       0.54291143      -9.13766832 F F F
 C              4.18947696       7.63955378       7.94642438      -0.00563237       0.00879123       0.03284233       1.06781366      -0.58427285      -2.29363630      -8.33912414 F F F
 C              8.53891988       1.08439541       8.93705314       0.00973792      -0.01040649       0.02873794      -0.63683182       1.24916335       0.08442611      -8.64935749 F F F
 C              4.47946754       7.62709350       5.17362232      -0.01283219      -0.00915571      -0.01137174       1.17078701      -1.59410148       2.57903233      -5.98048222 F F F
 C              9.18141875       1.99688780       7.97156463      -0.01225927       0.02877651      -0.00215677      -2.47453634      -0.31723091       0.43638683      -8.46767472 F F F
      50
 Properties=species:S:1:pos:R:3:velocities:R:3:forces:R:3:local_energy:R:1:fix_atoms:S:3 Lattice="9.9905032156        0.0000000000    0.0000000000    0.0000000000    9.9905032156    0.0000000000    0.0000000000    0.0000000000    9.9905032156" temperature=5412.24744522 pressure=16019.67990447 time_step=0.5000 time=20.000000 energy=-218.058960 energy_soap=-259.94499248  energy_2b=39.82373513 energy_3b=2.06229755 energy_core_pot=0.00000000 energy_vdw=0.00000000 energy_exp=0.00000000 energy_xps=0.00000000 virial="-7.41145479          -1.43527002     -1.74681487     -1.43527002    -28.56574943      5.75492908     -1.74681487      5.75492908     -2.67159321" stress="0.00743261            0.00143937      0.00175180      0.00143937      0.02864729     -0.00577136      0.00175180     -0.00577136      0.00267922" volume=997.153669 step=40
 H              7.92561524       9.60825253       2.16883707       0.04950245       0.04828227       0.02821207      -1.89741089       2.34417182       1.12897732      -2.89103810 F F F
 H              4.55343666       4.32298665       8.22720317       0.02344917      -0.01049508       0.05146122       1.15433639      -0.19657869       1.07622817      -2.74493435 F F F
 H              1.62236659       9.72769787       6.27384195       0.02937108       0.01205827       0.10982870       0.20006208      -2.35895554      -0.77041090      -3.18390200 F F F
 H              6.84115887       7.98749581       6.37529000       0.00487716      -0.13769049      -0.01639079      -0.31192741       0.56549709      -2.01171961      -3.08336697 F F F
 H              9.22438275       7.10587853       9.12116029       0.02540937       0.04061731      -0.01386315      -1.50706973      -0.00761814      -2.11763773      -2.81233915 F F F
 H              4.91381333       6.52252884       6.15343346       0.01234566       0.14366557       0.07752968       0.11644923      -0.60546526       0.57663514      -1.18271551 F F F
 H              2.57661557       7.42446043       5.53024608       0.07957958      -0.02308598      -0.05715162      -1.69030407       0.08387195      -0.21234031      -0.47085458 F F F
 H              7.74957267       9.71588780       8.61017105      -0.09014542       0.01720607       0.02819036       0.20679292      -0.73881570      -0.73755578      -2.56081890 F F F
 H              7.29182420       8.80840952       8.00956967       0.05247897       0.05858541       0.07971300       1.17386521       2.25814007       2.06235974      -2.48927931 F F F
 H              7.38761535       0.33752485       2.49065114      -0.16531855      -0.08733709       0.11718418       2.15578542      -2.75219297      -1.00172677      -2.73605829 F F F
 H              9.43530643       7.12309805       9.75378943       0.02724021       0.04875716      -0.01742712       0.20876647       0.05700668       2.83147467      -2.73250656 F F F
 H              2.72545368       2.93103015       2.68070059      -0.00606663      -0.11078815      -0.07248772      -1.03745119       1.63935941       0.35192798      -2.00702699 F F F
 H              8.03026305       2.08288275       9.68749037      -0.03407298      -0.00341116       0.04510621       0.49197403      -1.89884344      -0.26847344      -1.56276564 F F F
 H              6.71672633       3.59711508       7.49800647      -0.03365962      -0.04670005       0.05101313       0.00153517      -0.93279178      -0.15271829      -3.04279647 F F F
 H              1.01241371       0.93479506       7.92136792      -0.03709335       0.04871518      -0.05161734      -0.68729376       2.28388464       0.31613365      -1.85998664 F F F
 H              4.79313154       3.98595147       9.09556812      -0.02094546       0.04959215      -0.06301369      -0.23671656       1.00629537      -2.46226530      -2.36963346 F F F
 H              7.11918245       8.31738899       3.75356514      -0.04616486      -0.08933659       0.09007655       0.04182240       0.22443727       0.01260443      -2.03152596 F F F
 H              5.21440880       8.22379249       4.28877593      -0.11911170      -0.07965668       0.20748301      -1.91461144      -1.23841900       0.63640245      -2.40635976 F F F
 H              0.41949012       2.17636698       1.59528517       0.06577528      -0.07335242       0.01012653      -0.32849185      -0.12961214      -0.38673133      -0.92628707 F F F
 H              9.64090778       7.47765347       5.01085631       0.08789957       0.09050523       0.05576815       6.22172946      -3.21358342      -1.06752299      -2.89945850 F F F
 H              6.83890953       8.39685129       5.59191212       0.00713026       0.03262784      -0.09498698       0.50064315      -0.85191925       1.81587079      -3.02452041 F F F
 H              6.30121959       7.23104324       2.26564572      -0.01600897       0.01732451      -0.03620368      -0.01953374       1.30986195       0.94524064      -2.93151786 F F F
 H              1.51209120       2.67645402       6.61543705      -0.06114653      -0.11174278      -0.15958685      -0.90001910      -1.30114620       0.49759161      -2.61178226 F F F
 H              3.95477450       2.72684622       0.20726900      -0.17533053       0.02416282       0.07237003      -1.65790110       1.29491561       0.25581213      -1.88376066 F F F
 H              1.65601274       0.42477700       6.48870778      -0.04305701      -0.02540038       0.13812088       0.53465247       1.35004338      -0.75498313      -2.24938981 F F F
 H              9.77833577       9.60511693       0.74992562       0.02936887      -0.00180270       0.00918338      -0.65030729       0.53979839      -1.12697186      -1.10593365 F F F
 H              3.43054141       3.79992593       9.73691352       0.10528445       0.04703144       0.00767650       0.29396153      -2.21403075       1.97508781      -2.04367641 F F F
 H              6.45226478       6.63658222       1.92703690       0.00268970       0.03781888       0.06172406       0.57284896      -1.48426378      -0.68084366      -3.04225747 F F F
 H              9.10770227       7.76807471       5.11602552       0.00888132      -0.05366187      -0.03549781      -6.53517550       3.35087221       1.02061859      -3.01119497 F F F
 H              6.22346991       3.00224428       7.44837853       0.02470512      -0.03518284      -0.03544007       0.95290318       0.62043205      -0.01030024      -2.98962724 F F F
 C              4.41448540       7.75713399       9.26528320      -0.02388097      -0.01180030       0.03645063      -0.07673058       1.83288713       2.51801158      -7.57523307 F F F
 C              1.40973554       7.45413882       8.72146389       0.00067981      -0.00235897       0.01205328       2.22865678      -0.48808971       1.38119386      -6.26018074 F F F
 C              2.69584579       7.56113820       8.15886285       0.00947819       0.00833499      -0.01857922      -2.63626901      -0.59202951       2.53809181      -4.96357630 F F F
 C              2.28142793       7.04666271       6.98500407      -0.00670603       0.00656282      -0.02778772      -0.80911040      -0.42977907      -3.00369689      -9.53041971 F F F
 C              1.97402994       8.08559534       0.06539222      -0.00493443      -0.00162263      -0.04628851       1.77285000       0.28263650      -1.43366735      -7.90886081 F F F
 C              1.15730267       4.07471087       9.78763260       0.02507628      -0.01123227      -0.02573546      -1.43850752      -0.90545482      -0.17136749      -6.78212297 F F F
 C              4.20460728       7.50690199       6.37585988      -0.02904002      -0.00925597      -0.01421432       1.74000816      -1.19215958      -0.11386407      -8.82117596 F F F
 C              0.82724595       3.50288992       1.71510081      -0.01326478      -0.00692484       0.00076004       1.06860371       0.19499870       0.11760135      -7.50030485 F F F
 C              4.71137563       9.44979305       9.71663570      -0.01715520       0.02513390       0.00210148       4.90433053       3.03154695      -1.60681950      -6.22980194 F F F
 C              0.86395488       2.09968451       7.43744928       0.03528055      -0.00717041      -0.01567680      -0.75897787       0.36029372       2.24450732      -7.52094575 F F F
 C              1.17068079       2.50618306       0.54272453       0.02603504       0.01233271       0.03036270      -0.89671216       2.37193947      -1.08658200      -7.26219712 F F F
 C              1.88901859       5.66351422       9.19667404      -0.01663655      -0.00288390       0.02052674      -2.46322016       0.89680985       0.25625730      -9.04039161 F F F
 C              0.56146290       5.22561135       0.25502368       0.01446452       0.00003622       0.00596936       2.85988652      -1.39869589      -1.55847631      -6.60451945 F F F
 C              1.65731895       3.83426642       2.71090710      -0.00442170      -0.00234485      -0.00401998       0.61667557      -2.39477321      -1.81423849      -7.42502904 F F F
 C              0.57292821       2.94488125       8.58291838       0.00371959       0.00128633       0.01417300      -0.11909297       0.36928761       1.03652366      -8.72799896 F F F
 C              3.71534458       8.81823981       0.16667062       0.00025265       0.03224328       0.00522062      -7.14160413      -3.79280518       2.94007403      -5.55171707 F F F
 C              4.12880183       7.65871119       7.97977440      -0.00761835      -0.00497879      -0.03013990       1.85191666      -0.16569258      -2.55265299      -6.70268848 F F F