      50
 Properties=species:S:1:pos:R:3:velocities:R:3:forces:R:3:local_energy:R:1:fix_atoms:S:3 Lattice="9.9905032156        0.0000000000    0.0000000000    0.0000000000    9.9905032156    0.0000000000    0.0000000000    0.0000000000    9.9905032156" temperature=5919.31026904 pressure=21071.70380574 time_step=0.5000 time=0.000000 energy=-208.085548 energy_soap=-239.74412449  energy_2b=24.27415976 energy_3b=7.38441700 energy_core_pot=0.00000000 energy_vdw=0.00000000 energy_exp=0.00000000 energy_xps=0.00000000 virial="-27.52365148         -9.15635882     -1.52370212     -9.15635882     -6.94215188     -1.76923563     -1.52370212     -1.76923563     -1.17344937" stress="0.02760222            0.00918250      0.00152805      0.00918250      0.00696197      0.00177429      0.00152805      0.00177429      0.00117680" volume=997.153669 step=0
 H              6.92943692       9.47876703       9.48216781      -0.07110490       0.11607591      -0.09417136      -0.39928853       0.01512626       0.41136581      -2.91120783 F F F
 H              1.57642124       1.54063977       5.02491915      -0.03830521       0.03706728       0.11479645       0.53572068      -1.80642582      -1.64797089      -1.08213608 F F F
 H              1.01973349       1.05085446       2.82152327      -0.07164529       0.13149975      -0.13808702      -0.16305711       4.28788849       2.13157532       1.06708892 F F F
 H              0.77168055       5.25272662       2.05946910      -0.15006066       0.04295375      -0.07625904       3.29150084       1.13782340       2.44255260      -2.49477886 F F F
 H              6.57652288       9.53449854       6.66963747      -0.02713144       0.04118421      -0.08906953      -2.89175126      -0.86261533       3.10126203      -2.32469385 F F F
 H              9.70393784       9.53578982       2.79905429       0.02690281       0.05993074       0.04171050      -1.63130299      -1.69965757       0.87746895      -0.06272885 F F F
 H              9.55484229       4.24409520       9.19384074      -0.04678214       0.02307873      -0.04935170      -2.57334341      -0.74122517       1.04468031      -1.62712320 F F F
 H              2.37699451       9.75458804       8.12525379      -0.03616862      -0.07952996       0.04282174       0.01937066      -0.46406582      -0.18595747      -3.17006812 F F F
 H              2.62349015       6.87998598       6.74920457      -0.04160192      -0.02045132       0.00391470      -0.57141073       0.76882034       0.14351188      -3.02907467 F F F
 H              5.51610996       3.60523473       5.27211011       0.03132960      -0.06085110       0.07056025      -1.61748100      -0.58909532       2.31740900      -2.68247180 F F F
 H              8.51451251       2.10757204       8.36268968      -0.06426387      -0.06083741       0.00777536      -0.89914489       0.43355634       0.63797693      -1.35460197 F F F
 H              7.11504886       4.32198981       5.04877108      -0.06717061       0.06706761       0.10356311       0.75519570       0.23194800       1.15221880      -1.26465990 F F F
 H              3.33674046       0.07004708       4.08670248      -0.04776932       0.00918228      -0.09254955       1.08146249       0.50952652       1.11684931      -2.96613924 F F F
 H              3.75178711       0.34010050       1.77336047      -0.08942429       0.02464260      -0.02970047       0.66155986       0.68428651      -0.16533493      -1.22677390 F F F
 H              0.43407799       2.07793292       8.85913874       0.07032331      -0.06352929       0.03764238      -1.28787382       0.65906353       1.27890228      -3.02915418 F F F
 H              1.01111341       1.83977726       8.49280282      -0.06665934       0.12812259      -0.01101621       0.16075859       0.98033566      -0.74605809      -2.71493982 F F F
 H              1.41525288       4.65112035       5.83900908      -0.00274833      -0.06285142      -0.00793346      -0.23079601      -2.38112057      -1.32144488      -1.54823388 F F F
 H              2.87913020       9.77958087       3.64352946       0.01193569      -0.03095695       0.01814781      -0.96936661      -1.18550085      -1.36796492      -2.46675486 F F F
 H              9.44278565       6.55223018       3.01936031       0.06490241       0.06357799      -0.08379780      -1.13678147      -0.22707798       0.53738966      -1.15929851 F F F
 H              5.07924770       3.49911297       6.11600158       0.09321392       0.01532283       0.09275851       1.02148887       0.25990203      -2.64276739      -2.75472122 F F F
 H              2.20891222       0.50441890       8.20119087      -0.04417805       0.03750519       0.06008648       1.40735440      -1.35694758      -0.49176526      -2.70795361 F F F
 H              1.52400085       5.46202447       2.77480494      -0.01654011       0.16756360       0.11350892      -2.50144429      -1.07390111      -2.78657138      -2.51590566 F F F
 H              5.79197709       9.32549355       7.49804332       0.18271344      -0.04254308      -0.11688690       3.10570901       0.68568713      -3.26705001      -2.43015718 F F F
 H              2.30266354       7.56703622       6.90872520       0.02783609      -0.01326098       0.04489921       0.45715425      -0.81564705      -0.05115066      -3.04224139 F F F
 H              9.69261967       4.74071290       4.29190974      -0.00143311      -0.00928283       0.08585744      -0.31502218      -0.39494503       0.09912934      -0.94779811 F F F
 H              9.05903735       8.27216968       5.90144679       0.00833519       0.03977154      -0.05610913      -0.89801493       0.50649067      -1.69129385      -0.73961112 F F F
 H              7.04083334       4.70785879       2.81789511      -0.00219943       0.02929020      -0.02005491      -0.64225734      -0.10819012      -0.06636231      -0.23987881 F F F
 H              8.63592574       1.18348827       0.86964375       0.12442278      -0.05866346       0.05417447      -0.38059306       1.56642487      -1.42253069      -1.61064162 F F F
 H              2.29990129       3.54685562       4.91444159      -0.02585980      -0.05067682       0.01910129      -2.59708966       0.12701304       0.87276308      -1.60016829 F F F
 H              6.30336002       9.34673397       9.87797732      -0.03787407       0.09479016      -0.08861636       0.81600174      -0.29649056      -0.15063811      -2.67368052 F F F
 C              7.03584117       0.90347672       2.14938336       0.00419881       0.00661966       0.02590299       0.46006040      -1.31657243       2.59266855      -8.45079575 F F F
 C              7.32367104       3.74106235       3.77398697      -0.02454200      -0.00110069      -0.00639131      -1.47362782      -4.57592789      -4.74244146      -7.14221155 F F F
 C              7.94719812       7.43504455       3.48639464      -0.00237534       0.03796399      -0.01837673       4.83529048      -4.88626400       3.86400325      -9.42382971 F F F
 C              1.14181213       0.48562841       1.97625799      -0.03143134       0.00358255       0.02369594       3.32241426      -2.91564713      -9.12296371      -9.24836547 F F F
 C              9.80073142       2.10732239       4.16404602      -0.00718356       0.01998520       0.00130474       0.32175868       1.34993790       1.07280092      -8.70764638 F F F
 C              7.78725201       2.23776826       0.37859084       0.02527037      -0.00924584       0.00561481      -0.03617367       3.43925019      -1.95794506      -8.07384147 F F F
 C              0.48645932       3.17130114       5.22818920       0.06938054       0.02333472       0.01704604       1.31525496       1.35768538      -0.62581286      -6.99857941 F F F
 C              7.21239681       8.30334997       3.12321239       0.00753834      -0.00908378      -0.02196827      -1.89709828       4.89293982       1.02068224      -3.25391875 F F F
 C              1.01792008       1.02586726       3.97979096       0.00802953      -0.00392821      -0.01279508      -0.60938104       6.18724838       9.21344708      -8.61915627 F F F
 C              5.80896245       1.23752415       1.68783210      -0.00917962       0.02344200      -0.01232578      -1.35674875      -1.53888587       0.02791435      -5.04505205 F F F
 C              0.91821307       0.14129517       3.16496264       0.01215939      -0.01495504       0.01497738      -3.04806600      -3.10980554      -0.03959832      -2.22291171 F F F
 C              7.16276827       9.00275378       2.06926918      -0.02611318      -0.00868557       0.01695842      -0.77299404       4.69254112      -2.47396989      -9.27149715 F F F
 C              7.53726986       2.63197226       2.92967357      -0.00909916      -0.02283818       0.03470738      -0.16248252      -2.24575781       1.23210410      -9.18436707 F F F
 C              7.93939528       0.12968946       4.27190656      -0.00583920      -0.02893523      -0.02073935       3.12705485      -1.99959921      -3.28929901      -6.60878670 F F F
 C              8.02387687       3.82851619       9.73472623      -0.00859474      -0.01403617      -0.00448645       1.46047810      -3.82684716      -0.67964695      -6.25722617 F F F
 C              9.36054427       9.82836264       3.89894551       0.01033937      -0.01394168      -0.03349068      -2.69717816       0.21587887       0.00382947      -9.72405365 F F F
 C              6.52875683       2.61279018       9.37914651       0.02321747      -0.00556472       0.03020821       2.61220136      -1.76643584       3.04627672      -6.23425625 F F F
 C              5.88269588       1.41761957       0.34828745      -0.01408401      -0.00670841       0.00979216      -0.23791838       2.79920207      -1.14557312      -8.10526776 F F F
 C              8.38123932       6.01802513       3.91425559       0.00302593       0.00859287      -0.02962830       0.58540871       0.68693982      -0.14129444     -10.00678373 F F F
 C              7.89442417       4.72012561       4.22965792       0.00110049      -0.03286920      -0.01645011       2.64448907       3.70913241       1.98462370      -8.19649258 F F F
      50
 Properties=species:S:1:pos:R:3:velocities:R:3:forces:R:3:local_energy:R:1:fix_atoms:S:3 Lattice="9.9905032156        0.0000000000    0.0000000000    0.0000000000    9.9905032156    0.0000000000    0.0000000000    0.0000000000    9.9905032156" temperature=6039.07872438 pressure=17968.81429891 time_step=0.5000 time=10.000000 energy=-212.189177 energy_soap=-249.97092197  energy_2b=38.05874716 energy_3b=-0.27700201 energy_core_pot=0.00000000 energy_vdw=0.00000000 energy_exp=0.00000000 energy_xps=0.00000000 virial="-16.52303145          8.83392175     -4.32777432      8.83392175    -19.07477649     -6.41879463     -4.32777432     -6.41879463     -7.35208550" stress="0.01657020           -0.00885914      0.00434013     -0.00885914      0.01912922      0.00643712      0.00434013      0.00643712      0.00737307" volume=997.153669 step=20
 H              6.38317490       0.49426896       8.50042767      -0.06306136       0.04339606      -0.12843959      -0.37068929      -1.35571937      -1.68054277      -2.36742095 F F F
 H              1.24749028       1.35448116       5.64961321      -0.04014148      -0.05421416       0.02622399      -0.37427884      -0.26391573      -0.93946636      -1.18751144 F F F
 H              0.42318691       3.27693875       1.44333146      -0.06121969       0.17595013      -0.13908008      -0.76877106      -1.05270805      -0.65068242      -0.69715164 F F F
 H              0.25706121       6.35253400       2.43205046      -0.03016692       0.11434223       0.04122103      -5.47234676      -4.02381332      -8.13745862       0.11075189 F F F
 H              6.45909788       9.62784936       6.10479434       0.11293224      -0.05846303      -0.03767415       3.01094845      -1.14572628       0.07854081      -2.24106354 F F F
 H              9.69691865       8.84952529       2.52313603      -0.00274849      -0.15087043      -0.05209809       0.79719574       0.30006092      -0.07141132      -0.19657635 F F F
 H              8.28904899       4.25149437       9.03667165      -0.07915895       0.08097580      -0.08071169       0.84583866       1.32630501      -1.19387887      -2.15648767 F F F
 H              1.90953220       9.32429415       8.49537373      -0.04486856      -0.06727828       0.02289583       0.80826783       2.42952668       0.22273167      -2.92997022 F F F
 H              2.18490623       6.86282969       6.88069445      -0.03166772       0.02439432       0.03237525       0.01811451      -0.01902789       0.06350040      -3.06130468 F F F
 H              5.60046238       2.90281863       6.23096329       0.02727185      -0.03054156       0.11906011       1.19671920       2.03492655       1.22428257      -2.81269877 F F F
 H              7.78094439       1.66882688       8.65877350      -0.05702336      -0.01161689       0.04672633       0.68979577       0.91277819       0.05460210      -0.45487168 F F F
 H              7.17183106       5.14056699       5.63513580       0.07593075       0.06586292      -0.03394785       0.98769499      -1.20826382      -2.11214272      -1.59119863 F F F
 H              3.21112564       9.94225253       3.43174598      -0.00356080      -0.07994340      -0.07261622       2.18034885       1.62036229      -0.27081156      -2.72998975 F F F
 H              2.97366623       0.81069803       1.45557724      -0.08156050       0.05579666      -0.03027854      -0.69819234      -0.04192180      -0.06846877      -1.17377293 F F F
 H              0.64125842       2.11711463       9.10736507       0.01370672       0.11237350      -0.07898899      -0.55411968       1.03010505      -0.36923205      -3.06197091 F F F
 H              0.48556734       2.73816832       8.62066277      -0.07384758      -0.01479109       0.12847209      -0.11237455      -1.00928861       1.08413133      -2.99016369 F F F
 H              1.37100998       4.42590212       6.22987978       0.03117635       0.10953983       0.14595742      -0.18977246      -2.68742823      -1.80666365      -2.47819777 F F F
 H              2.80868530       9.41547059       3.55981962       0.01949001       0.00786156       0.00523237      -1.02872668      -2.13202345       0.69495064      -2.56295004 F F F
 H              9.40530855       6.99311483       2.46407039      -0.08716520       0.05153101      -0.03599940      -2.02515949       1.20103286       0.09250392      -1.01911387 F F F
 H              5.95349113       3.54225741       6.70521644       0.05306968      -0.04237699       0.01923721      -1.01669934      -1.78405982      -1.45098820      -2.84525513 F F F
 H              2.10914541       0.18040924       8.64976163      -0.00904261      -0.01026525       0.04589988      -0.80619960      -2.41937686      -0.34412027      -2.91057437 F F F
 H              0.65276592       6.51364034       2.84837091      -0.02831559       0.07256373       0.00317162       9.29595190       2.14735136       7.53777975      -2.80860798 F F F
 H              7.55459476       9.18862271       5.87720838       0.05056376       0.05976943      -0.16905489      -3.56607936       1.31508049       0.94706693      -2.19547139 F F F
 H              2.58775102       7.29970490       7.31468966       0.01466126      -0.04393798       0.02591039      -0.10450455       0.17960074       0.07586710      -3.04735979 F F F
 H              9.39852121       4.46567456       4.91608929      -0.05811669      -0.03569976       0.01363252      -0.87958198       0.24206734      -1.56967335      -1.37620821 F F F
 H              8.84501859       8.75165601       4.74435419      -0.01416067       0.03282364      -0.11168756       0.67594994      -0.56056146       0.51500313       0.27208982 F F F
 H              6.87429584       4.86179647       2.69775505      -0.02578506      -0.00717407      -0.00894590      -0.24255786      -0.65012211      -0.21431195      -0.75285544 F F F
 H              9.53127198       1.14826768       1.09118200       0.07400643       0.03576093       0.01577519       0.86736443       0.24654884       0.67422964      -1.39978886 F F F
 H              2.18798446       2.82535684       4.75731062       0.13581702      -0.07119091      -0.09153252      -1.71331884       2.72478519       1.11194463      -2.03343654 F F F
 H              6.04293154       0.19664096       9.09254533      -0.01723592       0.08044166      -0.07633004      -0.52241488      -0.49255899       0.40421325      -2.48142065 F F F
 C              7.06927616       0.93136163       2.47130722       0.00106935       0.00430360       0.03581643      -0.99038309       1.41009016       0.23729932      -7.59585640 F F F
 C              7.04700395       3.60552920       3.58473811      -0.02238337      -0.01373354      -0.02244052       2.78818354       2.05688775       0.82157280      -6.68446359 F F F
 C              8.20542506       7.47639522       3.48814864       0.03519640      -0.01832447       0.00544771      -1.65342524      -3.09022856      -0.86491562      -8.54516747 F F F
 C              0.94626614       0.51282560       2.00608651      -0.01124202       0.00763226      -0.00254409       1.08475329       0.81730361       0.20448444      -8.57675304 F F F
 C              9.72545945       2.34423990       4.19654452      -0.00686317       0.02444313       0.00154425       0.82255870      -0.33938223      -0.32740681      -6.53573958 F F F
 C              8.02935631       2.26299518       0.37969847       0.02612394       0.01095677      -0.00137909       2.26994598       0.91641018       1.25647910      -7.85714952 F F F
 C              1.12820801       3.36930180       5.36824583       0.04276281       0.00746052       0.00849231       0.75631401      -0.65832558      -0.68684868      -6.95145478 F F F
 C              7.16386883       8.36829242       3.02778058      -0.00501786       0.00906328      -0.00081155       0.71290862      -1.33777797      -0.34026505      -6.83994848 F F F
 C              1.09835882       1.15293413       4.09087387       0.00558133       0.01703919       0.01949489      -1.40994975      -0.71122835       0.75174456      -9.22724542 F F F
 C              5.72055535       1.41542888       1.65019192      -0.00603810       0.01229877       0.00857620       1.11763535      -1.36499440       2.46123934      -6.93201407 F F F
 C              0.92421172       9.90631329       3.30532131      -0.01037883      -0.01331668       0.01153249      -3.03028372       4.50667555      -0.87961385      -4.43313394 F F F
 C              6.83101393       9.21509690       1.98864175      -0.03832550       0.03811764      -0.02066534      -0.51387316       0.43950457       0.73986165      -7.06751384 F F F
 C              7.43899499       2.31093297       3.28786501      -0.00999034      -0.04060565       0.03400232      -0.00907734      -1.38177313      -0.65127394      -8.31145149 F F F
 C              7.99557262       9.80486256       3.95972302       0.01078449      -0.02662446      -0.03688364      -0.22361299       2.35408965       0.06328296      -8.09881477 F F F
 C              7.96045972       3.53382705       9.67618602      -0.01293427      -0.04989443       0.00094860      -0.15431236      -2.15349834       1.45934552      -8.72724814 F F F
 C              9.30578503       9.72576769       3.68051516      -0.01242382      -0.00700575      -0.01595176       1.46272394       0.80657736      -0.35834466     -10.03632383 F F F
 C              6.84313749       2.51261142       9.75621500       0.03611974      -0.01059783       0.03853581      -0.85830936      -0.08220224      -1.86998506      -7.38271058 F F F
 C              5.74280099       1.44954805       0.36051283      -0.01332647       0.00989158      -0.00703903       0.22367281       1.13153492      -0.35842206      -7.31089176 F F F
 C              8.40171541       6.11584452       3.61681046      -0.00285581       0.00875658      -0.02625809      -2.45415844      -1.21750564       1.85333104      -9.12049201 F F F
 C              7.98819236       4.54775495       4.18990001       0.01097939      -0.00728513       0.00789604      -0.86971349       1.03382697       2.58694000      -8.77425298 F F F
      50
 Properties=species:S:1:pos:R:3:velocities:R:3:forces:R:3:local_energy:R:1:fix_atoms:S:3 Lattice="9.9905032156        0.0000000000    0.0000000000    0.0000000000    9.9905032156    0.0000000000    0.0000000000    0.0000000000    9.9905032156" temperature=5667.54104305 pressure=17308.52475962 time_step=0.5000 time=20.000000 energy=-212.166393 energy_soap=-223.56217979  energy_2b=11.13372636 energy_3b=0.26206022 energy_core_pot=0.00000000 energy_vdw=0.00000000 energy_exp=0.00000000 energy_xps=0.00000000 virial="-15.05897615         -0.77260623     -8.67427325     -0.77260623    -17.20450185     -7.26271432     -8.67427325     -7.26271432     -7.21281281" stress="0.01510196            0.00077481      0.00869903      0.00077481      0.01725361      0.00728345      0.00869903      0.00728345      0.00723340" volume=997.153669 step=40
 H              5.54594346       0.52893988       7.33147516      -0.09424850      -0.02338761      -0.06838525      -0.39827241      -1.61184765      -1.30939007      -3.02326563 F F F
 H              0.80598746       0.95290144       5.23544391      -0.03082469      -0.01627402      -0.05890572      -0.05124945      -0.64018320       5.25153575      -1.34538100 F F F
 H              9.41504660       4.59533848       9.66276136      -0.12213519       0.08361829      -0.20248462      -0.25031370      -0.98198737      -0.09248321      -1.84479766 F F F
 H              0.60135760       6.92676734       2.25433086       0.13274424       0.07426073       0.02524150       0.40989383       1.13112000       1.16688090      -1.93402533 F F F
 H              7.97827082       8.97947999       5.67958319       0.12658057      -0.03516708      -0.07576336      -0.52969704       0.47885496      -1.43740790      -1.62764538 F F F
 H              9.92180421       7.82727643       1.69203635       0.04479810      -0.09614947      -0.10177101       0.47110764      -0.71388188       0.89143277      -2.31230197 F F F
 H              7.55056701       4.20790688       8.84179777      -0.06059886      -0.10041132       0.05148525       0.58998305      -1.36283021       1.26398457      -2.51003548 F F F
 H              1.66135319       8.99019394       8.65330930      -0.01331479      -0.02487557       0.02018262       0.77719249       2.61592823       1.61302889      -2.92434625 F F F
 H              1.94989668       7.06300694       7.27410904      -0.01838772       0.01730830       0.04626966      -0.68195121       0.04938605      -0.24833900      -3.03348602 F F F
 H              5.94060693       2.71565346       7.42388341       0.08182424       0.05228971       0.09157700       1.04435943       2.22504742      -0.48756657      -2.87150733 F F F
 H              7.35731161       1.72720138       8.97725949      -0.05272625       0.00767669       0.02363666      -0.60587543      -0.23133169       0.25558095      -0.15142804 F F F
 H              7.92461897       5.20839143       4.92699805       0.01873359       0.00896012      -0.00102205      -1.86790806       3.41269847       5.15729202      -1.11517076 F F F
 H              3.32279413       9.31767380       2.91801550      -0.01062727      -0.06757061      -0.06068970       0.62906584       0.40568142      -3.55477285      -2.89032703 F F F
 H              1.49821484       1.05845059       1.38375805      -0.14104830      -0.02394794       0.00067124       6.49248732      -0.12623119      -3.97448209      -2.62129118 F F F
 H              0.66856000       2.70621350       8.93710056      -0.08729675       0.09106016       0.03542846      -1.89287503       0.82002864       1.30665589      -1.93618269 F F F
 H              9.58549287       3.18102486       9.57557743      -0.01911544       0.03040327       0.07231782       1.60599617      -0.43182931      -0.96868082      -1.03899285 F F F
 H              1.72132747       4.51294582       6.78982094       0.04651935      -0.07390128      -0.03577075       0.29408954      -1.73883090      -2.21609592      -1.45410671 F F F
 H              3.10767075       9.29530271       3.53323933       0.02972011       0.00490217       0.00990677      -1.89864034      -0.01033561       3.51670780      -2.89754578 F F F
 H              7.73134270       7.94153986       2.23060697      -0.22037804       0.13180737      -0.02266127      -0.01407933      -0.66213113      -1.38427527      -0.02486885 F F F
 H              6.46573660       3.11046112       6.94512963       0.01662688      -0.06808517       0.05867042      -0.43449207       0.09011836       0.57421265      -2.97861915 F F F
 H              1.83526491       9.75398199       9.16210495      -0.03746392      -0.04572043       0.04907129      -0.81498884      -2.46425560      -1.40858184      -2.82992403 F F F
 H              1.22988445       7.12807397       3.27378770       0.01011775       0.04009146      -0.00978697      -1.21226006      -0.13552674      -1.52653933      -2.32061215 F F F
 H              7.08250462       9.91014470       4.80274773      -0.04384490       0.02310289      -0.04713944       1.37618461      -1.82654035       1.06115468      -1.09286984 F F F
 H              2.59944207       6.92926744       7.55314758      -0.00870356      -0.03786674       0.01925041       0.60950801      -0.24193328       0.23182881      -3.03180376 F F F
 H              9.03264874       3.98608519       4.65554568       0.09120776      -0.10266231       0.00744200       0.14358270      -0.10353634       0.04900255      -1.61062448 F F F
 H              9.22838130       8.46254039       3.76444349       0.08131792      -0.11331712      -0.06959814       0.02094707      -0.91203756       0.29061214       1.02008057 F F F
 H              6.59362194       4.26831283       2.64452062      -0.01905604      -0.12664113       0.02043961      -0.12828647      -0.71621417       0.07157617      -2.15072538 F F F
 H              0.59680594       1.46395928       1.63078323       0.03687738       0.11012103       0.04898146      -5.17828025       5.65335696      -0.55331663      -2.45601324 F F F
 H              2.71606868       2.86071208       4.37580800      -0.03800220       0.05432195       0.03685909      -1.84890110       1.10130571       2.11222161      -1.55319224 F F F
 H              5.64672736       0.89382503       7.93977216      -0.05850155       0.03953093      -0.16386066      -0.21028955      -0.55986896       1.71379441      -2.72370145 F F F
 C              7.03428804       1.02227201       2.82362726      -0.01046233       0.01028215       0.02917617      -2.80770406      -1.55169615      -4.30016054      -6.71999163 F F F
 C              6.96078646       3.52850866       3.43547202       0.00673829      -0.00211926      -0.00530114       4.46055812       0.75538250       3.13298714      -8.09050966 F F F
 C              8.49133265       7.26520346       3.48312336       0.02394569      -0.01508359      -0.00760168      -0.26926539       1.03033723      -0.67075775      -9.18436628 F F F
 C              0.89903325       0.59004768       2.01244353       0.00482874       0.00049432       0.00839543      -0.15506991      -6.15518098       5.32943736      -6.09518796 F F F
 C              9.71718003       2.52200368       4.20464963       0.00623731       0.00807382      -0.00031416       1.96124913      -2.61817132      -0.66883785      -6.36075302 F F F
 C              8.48940982       2.27995554       0.54591092       0.05617840      -0.00256255       0.02852517      -2.32094836       1.77444423      -0.87957234      -8.17812974 F F F
 C              1.53158065       3.39531558       5.40281603       0.03664926      -0.00356165      -0.00245785      -0.54728022      -1.48996268      -1.21762672      -5.50184679 F F F
 C              7.12378454       8.45721739       2.98687962      -0.00231496       0.01172409      -0.00852394       0.47420500       1.11270611      -0.91556406      -8.00201845 F F F
 C              1.09720169       1.31783252       4.32572359      -0.00592070       0.01857732       0.02321549      -1.07636474       2.45754476      -4.76959974      -8.16691653 F F F
 C              5.72691495       1.47855265       1.77110582       0.00840631       0.00085156       0.01139542       1.83888117      -0.85143856      -0.53401642      -7.78343335 F F F
 C              0.74221918       9.96298662       3.37388872      -0.01789018       0.02106076       0.00297182       2.56902540       2.37149643      -0.69610613      -6.28102605 F F F
 C              6.44734333       9.60559875       1.85917898      -0.03743377       0.04109460      -0.00297470      -0.30303266       1.38607430       2.42001534      -7.36169103 F F F
 C              7.34592192       1.95830381       3.58939332      -0.00832386      -0.02124429       0.02760892       0.23173267       6.58954483       0.77681308      -7.34956422 F F F
 C              8.02737454       9.60690567       3.60024345      -0.01098036      -0.01425624      -0.03459291      -3.76392783       0.90753394       1.46697431      -8.37058125 F F F
 C              7.91968773       3.31162750       9.54488551       0.00021368       0.00014416      -0.02498432      -0.46654775       0.87323168       0.18161086      -8.44765005 F F F
 C              9.30800809       9.72311058       3.49910814       0.01201108       0.00735990      -0.01839659       0.98629004       0.03066788       0.91588286      -9.87002090 F F F
 C              6.97797921       2.32099394       0.02525226      -0.00065720      -0.02761519       0.01468844       1.33625812      -1.40426427      -2.13825426      -8.44440549 F F F