2
Lattice="15.0 0.0 0.0 0.0 17.0 0.0 0.0 0.0 20.4" Properties=species:S:1:pos:R:3:local_energy:R:1:hirshfeld_v:R:1:forces:R:3 energy_soap=-18.53066396 energy_2b=27.71433453 energy_3b=0.0 energy_core_pot=189.38395927 energy_vdw=0.0 energy_exp=0.0 energy_xps=0.0 virial="0.0 0.0 -0.0 0.0 0.0 0.0 -0.0 0.0 453.73496278" volume=5202.0 config_type=dimers energy_sigma=0.0014142135623730952 energy=198.56763 stress="-0.0 -0.0 0.0 -0.0 -0.0 -0.0 0.0 -0.0 -0.08722318" pbc="T T T"
C       10.00000000      10.00000000      10.00000000      99.28381492       1.05817632       0.00000000       0.00000000   -1134.33740695
C       10.00000000      10.00000000      10.40000000      99.28381492       1.05817632      -0.00000000       0.00000000    1134.33740695
2
Lattice="15.0 0.0 0.0 0.0 17.0 0.0 0.0 0.0 20.5" Properties=species:S:1:pos:R:3:local_energy:R:1:hirshfeld_v:R:1:forces:R:3 energy_soap=-25.66866326 energy_2b=28.44147719 energy_3b=0.0 energy_core_pot=111.28897756 energy_vdw=0.0 energy_exp=0.0 energy_xps=0.0 virial="0.0 0.0 -0.0 0.0 0.0 0.0 -0.0 0.0 314.9247406" volume=5227.5 config_type=dimers energy_sigma=0.0014142135623730952 energy=114.061791 stress="-0.0 -0.0 0.0 -0.0 -0.0 -0.0 0.0 -0.0 -0.06024385" pbc="T T T"
C       10.00000000      10.00000000      10.00000000      57.03089575       1.06394676       0.00000000       0.00000000    -629.84948120
C       10.00000000      10.00000000      10.50000000      57.03089575       1.06394676      -0.00000000       0.00000000     629.84948120
2
Lattice="15.0 0.0 0.0 0.0 17.0 0.0 0.0 0.0 20.6" Properties=species:S:1:pos:R:3:local_energy:R:1:hirshfeld_v:R:1:forces:R:3 energy_soap=-26.98213144 energy_2b=26.48531451 energy_3b=0.0 energy_core_pot=64.23351728 energy_vdw=0.0 energy_exp=0.0 energy_xps=0.0 virial="0.0 0.0 0.0 0.0 0.0 0.0 0.0 0.0 238.86330083" volume=5253.0 config_type=dimers energy_sigma=0.0014142135623730952 energy=63.7367 stress="-0.0 -0.0 -0.0 -0.0 -0.0 -0.0 -0.0 -0.0 -0.04547179" pbc="T T T"
C       10.00000000      10.00000000      10.00000000      31.86835017       1.02972718      -0.00000000       0.00000000    -398.10550138
C       10.00000000      10.00000000      10.60000000      31.86835017       1.02972718       0.00000000       0.00000000     398.10550138
2
Lattice="15.0 0.0 0.0 0.0 17.0 0.0 0.0 0.0 20.7" Properties=species:S:1:pos:R:3:local_energy:R:1:hirshfeld_v:R:1:forces:R:3 energy_soap=-22.35305227 energy_2b=22.14208743 energy_3b=0.0 energy_core_pot=32.63095886 energy_vdw=0.0 energy_exp=0.0 energy_xps=0.0 virial="0.0 0.0 0.0 0.0 0.0 0.0 0.0 0.0 165.72145062" volume=5278.5 config_type=dimers energy_sigma=0.0014142135623730952 energy=32.419994 stress="-0.0 -0.0 -0.0 -0.0 -0.0 -0.0 -0.0 -0.0 -0.03139556" pbc="T T T"
C       10.00000000      10.00000000      10.00000000      16.20999701       0.97890230      -0.00000000       0.00000000    -236.74492946
C       10.00000000      10.00000000      10.70000000      16.20999701       0.97890230       0.00000000       0.00000000     236.74492946
2
Lattice="15.0 0.0 0.0 0.0 17.0 0.0 0.0 0.0 20.8" Properties=species:S:1:pos:R:3:local_energy:R:1:hirshfeld_v:R:1:forces:R:3 energy_soap=-15.41061341 energy_2b=16.5003503 energy_3b=0.0 energy_core_pot=12.82306886 energy_vdw=0.0 energy_exp=0.0 energy_xps=0.0 virial="0.0 0.0 0.0 0.0 0.0 0.0 0.0 0.0 116.3896886" volume=5304.0 config_type=dimers energy_sigma=0.0014142135623730952 energy=13.912806 stress="-0.0 -0.0 -0.0 -0.0 -0.0 -0.0 -0.0 -0.0 -0.02194376" pbc="T T T"
C       10.00000000      10.00000000      10.00000000       6.95640288       0.94108877      -0.00000000       0.00000000    -145.48711075
C       10.00000000      10.00000000      10.80000000       6.95640288       0.94108877       0.00000000       0.00000000     145.48711075
2
Lattice="15.0 0.0 0.0 0.0 17.0 0.0 0.0 0.0 20.9" Properties=species:S:1:pos:R:3:local_energy:R:1:hirshfeld_v:R:1:forces:R:3 energy_soap=-11.13720354 energy_2b=10.8982544 energy_3b=0.0 energy_core_pot=1.38824321 energy_vdw=0.0 energy_exp=0.0 energy_xps=0.0 virial="0.0 0.0 0.0 0.0 0.0 0.0 0.0 0.0 82.63093815" volume=5329.5 config_type=dimers energy_sigma=0.0014142135623730952 energy=1.149294 stress="-0.0 -0.0 -0.0 -0.0 -0.0 -0.0 -0.0 -0.0 -0.01550444" pbc="T T T"
C       10.00000000      10.00000000      10.00000000       0.57464704       0.92953276      -0.00000000       0.00000000     -91.81215350
C       10.00000000      10.00000000      10.90000000       0.57464704       0.92953276       0.00000000       0.00000000      91.81215350
2
Lattice="15.0 0.0 0.0 0.0 17.0 0.0 0.0 0.0 21.0" Properties=species:S:1:pos:R:3:local_energy:R:1:hirshfeld_v:R:1:forces:R:3 energy_soap=-10.25584357 energy_2b=6.37618794 energy_3b=0.0 energy_core_pot=0.0 energy_vdw=0.0 energy_exp=0.0 energy_xps=0.0 virial="0.0 0.0 -0.0 0.0 0.0 0.0 -0.0 0.0 39.62737826" volume=5355.0 config_type=dimers energy_sigma=0.0014142135623730952 energy=-3.879656 stress="-0.0 -0.0 0.0 -0.0 -0.0 -0.0 0.0 -0.0 -0.00740007" pbc="T T T"
C       10.00000000      10.00000000      10.00000000      -1.93982781       0.94134426       0.00000000       0.00000000     -39.62737826
C       10.00000000      10.00000000      11.00000000      -1.93982781       0.94134426      -0.00000000       0.00000000      39.62737826
2
Lattice="15.0 0.0 0.0 0.0 17.0 0.0 0.0 0.0 21.1" Properties=species:S:1:pos:R:3:local_energy:R:1:hirshfeld_v:R:1:forces:R:3 energy_soap=-10.76856162 energy_2b=3.37555761 energy_3b=0.0 energy_core_pot=0.0 energy_vdw=0.0 energy_exp=0.0 energy_xps=0.0 virial="0.0 0.0 -0.0 0.0 0.0 0.0 -0.0 0.0 31.03203457" volume=5380.5 config_type=dimers energy_sigma=0.0014142135623730952 energy=-7.393004 stress="-0.0 -0.0 0.0 -0.0 -0.0 -0.0 0.0 -0.0 -0.0057675" pbc="T T T"
C       10.00000000      10.00000000      10.00000000      -3.69650201       0.96649810       0.00000000       0.00000000     -28.21094052
C       10.00000000      10.00000000      11.10000000      -3.69650201       0.96649810      -0.00000000       0.00000000      28.21094052
2
Lattice="15.0 0.0 0.0 0.0 17.0 0.0 0.0 0.0 21.2" Properties=species:S:1:pos:R:3:local_energy:R:1:hirshfeld_v:R:1:forces:R:3 energy_soap=-11.10271459 energy_2b=1.76131247 energy_3b=0.0 energy_core_pot=0.0 energy_vdw=0.0 energy_exp=0.0 energy_xps=0.0 virial="0.0 0.0 -0.0 0.0 0.0 0.0 -0.0 0.0 13.30276976" volume=5406.0 config_type=dimers energy_sigma=0.0014142135623730952 energy=-9.341402 stress="-0.0 -0.0 0.0 -0.0 -0.0 -0.0 0.0 -0.0 -0.00246074" pbc="T T T"
C       10.00000000      10.00000000      10.00000000      -4.67070106       0.99483312       0.00000000       0.00000000     -11.08564147
C       10.00000000      10.00000000      11.20000000      -4.67070106       0.99483312      -0.00000000       0.00000000      11.08564147
2
Lattice="15.0 0.0 0.0 0.0 17.0 0.0 0.0 0.0 21.3" Properties=species:S:1:pos:R:3:local_energy:R:1:hirshfeld_v:R:1:forces:R:3 energy_soap=-10.87178964 energy_2b=1.06951904 energy_3b=0.0 energy_core_pot=0.0 energy_vdw=0.0 energy_exp=0.0 energy_xps=0.0 virial="0.0 0.0 0.0 0.0 0.0 0.0 0.0 0.0 -0.8329229" volume=5431.5 config_type=dimers energy_sigma=0.0014142135623730952 energy=-9.802271 stress="-0.0 -0.0 -0.0 -0.0 -0.0 -0.0 -0.0 -0.0 0.00015335" pbc="T T T"
C       10.00000000      10.00000000      10.00000000      -4.90113530       1.01948399      -0.00000000       0.00000000       0.64070992
C       10.00000000      10.00000000      11.30000000      -4.90113530       1.01948399       0.00000000       0.00000000      -0.64070992
2
Lattice="15.0 0.0 0.0 0.0 17.0 0.0 0.0 0.0 21.4" Properties=species:S:1:pos:R:3:local_energy:R:1:hirshfeld_v:R:1:forces:R:3 energy_soap=-10.23907952 energy_2b=0.80093178 energy_3b=0.0 energy_core_pot=0.0 energy_vdw=0.0 energy_exp=0.0 energy_xps=0.0 virial="0.0 0.0 0.0 0.0 0.0 0.0 0.0 0.0 -8.04118409" volume=5457.0 config_type=dimers energy_sigma=0.0014142135623730952 energy=-9.438148 stress="-0.0 -0.0 -0.0 -0.0 -0.0 -0.0 -0.0 -0.0 0.00147355" pbc="T T T"
C       10.00000000      10.00000000      10.00000000      -4.71907387       1.03746708      -0.00000000       0.00000000       5.74370292
C       10.00000000      10.00000000      11.40000000      -4.71907387       1.03746708       0.00000000       0.00000000      -5.74370292
2
Lattice="15.0 0.0 0.0 0.0 17.0 0.0 0.0 0.0 21.5" Properties=species:S:1:pos:R:3:local_energy:R:1:hirshfeld_v:R:1:forces:R:3 energy_soap=-9.39407588 energy_2b=0.61576735 energy_3b=0.0 energy_core_pot=0.0 energy_vdw=0.0 energy_exp=0.0 energy_xps=0.0 virial="0.0 0.0 0.0 0.0 0.0 0.0 0.0 0.0 -10.6148391" volume=5482.5 config_type=dimers energy_sigma=0.0014142135623730952 energy=-8.778309 stress="-0.0 -0.0 -0.0 -0.0 -0.0 -0.0 -0.0 -0.0 0.00193613" pbc="T T T"
C       10.00000000      10.00000000      10.00000000      -4.38915426       1.04875793      -0.00000000       0.00000000       7.07655940
C       10.00000000      10.00000000      11.50000000      -4.38915426       1.04875793       0.00000000       0.00000000      -7.07655940
2
Lattice="15.0 0.0 0.0 0.0 17.0 0.0 0.0 0.0 21.6" Properties=species:S:1:pos:R:3:local_energy:R:1:hirshfeld_v:R:1:forces:R:3 energy_soap=-8.44447671 energy_2b=0.38118847 energy_3b=0.0 energy_core_pot=0.0 energy_vdw=0.0 energy_exp=0.0 energy_xps=0.0 virial="0.0 0.0 0.0 0.0 0.0 0.0 0.0 0.0 -11.42958755" volume=5508.0 config_type=dimers energy_sigma=0.0014142135623730952 energy=-8.063288 stress="-0.0 -0.0 -0.0 -0.0 -0.0 -0.0 -0.0 -0.0 0.00207509" pbc="T T T"
C       10.00000000      10.00000000      10.00000000      -4.03164412       1.05503533      -0.00000000       0.00000000       7.14349222
C       10.00000000      10.00000000      11.60000000      -4.03164412       1.05503533       0.00000000       0.00000000      -7.14349222
2
Lattice="15.0 0.0 0.0 0.0 17.0 0.0 0.0 0.0 21.7" Properties=species:S:1:pos:R:3:local_energy:R:1:hirshfeld_v:R:1:forces:R:3 energy_soap=-7.46444129 energy_2b=0.1102315 energy_3b=0.0 energy_core_pot=0.0 energy_vdw=0.0 energy_exp=0.0 energy_xps=0.0 virial="0.0 0.0 0.0 0.0 0.0 0.0 0.0 0.0 -11.97136321" volume=5533.5 config_type=dimers energy_sigma=0.0014142135623730952 energy=-7.35421 stress="-0.0 -0.0 -0.0 -0.0 -0.0 -0.0 -0.0 -0.0 0.00216343" pbc="T T T"
C       10.00000000      10.00000000      10.00000000      -3.67710490       1.05859600      -0.00000000       0.00000000       7.04197836
C       10.00000000      10.00000000      11.70000000      -3.67710490       1.05859600       0.00000000       0.00000000      -7.04197836
2
Lattice="15.0 0.0 0.0 0.0 17.0 0.0 0.0 0.0 21.8" Properties=species:S:1:pos:R:3:local_energy:R:1:hirshfeld_v:R:1:forces:R:3 energy_soap=-6.52131093 energy_2b=-0.13290244 energy_3b=0.0 energy_core_pot=0.0 energy_vdw=0.0 energy_exp=0.0 energy_xps=0.0 virial="0.0 0.0 0.0 0.0 0.0 0.0 0.0 0.0 -12.51479773" volume=5559.0 config_type=dimers energy_sigma=0.0014142135623730952 energy=-6.654213 stress="-0.0 -0.0 -0.0 -0.0 -0.0 -0.0 -0.0 -0.0 0.00225127" pbc="T T T"
C       10.00000000      10.00000000      10.00000000      -3.32710668       1.06154571      -0.00000000       0.00000000       6.95266541
C       10.00000000      10.00000000      11.80000000      -3.32710668       1.06154571       0.00000000       0.00000000      -6.95266541
2
Lattice="15.0 0.0 0.0 0.0 17.0 0.0 0.0 0.0 21.9" Properties=species:S:1:pos:R:3:local_energy:R:1:hirshfeld_v:R:1:forces:R:3 energy_soap=-5.66593336 energy_2b=-0.30097105 energy_3b=0.0 energy_core_pot=0.0 energy_vdw=0.0 energy_exp=0.0 energy_xps=0.0 virial="0.0 0.0 0.0 0.0 0.0 0.0 0.0 0.0 -12.86181427" volume=5584.5 config_type=dimers energy_sigma=0.0014142135623730952 energy=-5.966904 stress="-0.0 -0.0 -0.0 -0.0 -0.0 -0.0 -0.0 -0.0 0.00230313" pbc="T T T"
C       10.00000000      10.00000000      10.00000000      -2.98345220       1.06530628      -0.00000000       0.00000000       6.76937593
C       10.00000000      10.00000000      11.90000000      -2.98345220       1.06530628       0.00000000       0.00000000      -6.76937593
2
Lattice="15.0 0.0 0.0 0.0 17.0 0.0 0.0 0.0 22.0" Properties=species:S:1:pos:R:3:local_energy:R:1:hirshfeld_v:R:1:forces:R:3 energy_soap=-4.92110124 energy_2b=-0.38433333 energy_3b=0.0 energy_core_pot=0.0 energy_vdw=0.0 energy_exp=0.0 energy_xps=0.0 virial="0.0 0.0 0.0 0.0 0.0 0.0 0.0 0.0 -12.87526366" volume=5610.0 config_type=dimers energy_sigma=0.0014142135623730952 energy=-5.305435 stress="-0.0 -0.0 -0.0 -0.0 -0.0 -0.0 -0.0 -0.0 0.00229506" pbc="T T T"
C       10.00000000      10.00000000      10.00000000      -2.65271729       1.07045780      -0.00000000       0.00000000       6.43763183
C       10.00000000      10.00000000      12.00000000      -2.65271729       1.07045780       0.00000000       0.00000000      -6.43763183
2
Lattice="15.0 0.0 0.0 0.0 17.0 0.0 0.0 0.0 22.1" Properties=species:S:1:pos:R:3:local_energy:R:1:hirshfeld_v:R:1:forces:R:3 energy_soap=-4.28445897 energy_2b=-0.39787778 energy_3b=0.0 energy_core_pot=0.0 energy_vdw=0.0 energy_exp=0.0 energy_xps=0.0 virial="0.0 0.0 0.0 0.0 0.0 0.0 0.0 0.0 -12.63810264" volume=5635.5 config_type=dimers energy_sigma=0.0014142135623730952 energy=-4.682337 stress="-0.0 -0.0 -0.0 -0.0 -0.0 -0.0 -0.0 -0.0 0.00224259" pbc="T T T"
C       10.00000000      10.00000000      10.00000000      -2.34116837       1.07686100      -0.00000000       0.00000000       6.01814411
C       10.00000000      10.00000000      12.10000000      -2.34116837       1.07686100       0.00000000       0.00000000      -6.01814411
2
Lattice="15.0 0.0 0.0 0.0 17.0 0.0 0.0 0.0 22.2" Properties=species:S:1:pos:R:3:local_energy:R:1:hirshfeld_v:R:1:forces:R:3 energy_soap=-3.74066267 energy_2b=-0.36095725 energy_3b=0.0 energy_core_pot=0.0 energy_vdw=0.0 energy_exp=0.0 energy_xps=0.0 virial="0.0 0.0 0.0 0.0 0.0 0.0 0.0 0.0 -12.32361172" volume=5661.0 config_type=dimers energy_sigma=0.0014142135623730952 energy=-4.10162 stress="-0.0 -0.0 -0.0 -0.0 -0.0 -0.0 -0.0 -0.0 0.00217693" pbc="T T T"
C       10.00000000      10.00000000      10.00000000      -2.05080996       1.08393790      -0.00000000       0.00000000       5.60164169
C       10.00000000      10.00000000      12.20000000      -2.05080996       1.08393790       0.00000000       0.00000000      -5.60164169
2
Lattice="15.0 0.0 0.0 0.0 17.0 0.0 0.0 0.0 22.3" Properties=species:S:1:pos:R:3:local_energy:R:1:hirshfeld_v:R:1:forces:R:3 energy_soap=-3.27263588 energy_2b=-0.2883425 energy_3b=0.0 energy_core_pot=0.0 energy_vdw=0.0 energy_exp=0.0 energy_xps=0.0 virial="0.0 0.0 0.0 0.0 0.0 0.0 0.0 0.0 -11.98998126" volume=5686.5 config_type=dimers energy_sigma=0.0014142135623730952 energy=-3.560978 stress="-0.0 -0.0 -0.0 -0.0 -0.0 -0.0 -0.0 -0.0 0.0021085" pbc="T T T"
C       10.00000000      10.00000000      10.00000000      -1.78048919       1.09097884      -0.00000000       0.00000000       5.21303533
C       10.00000000      10.00000000      12.30000000      -1.78048919       1.09097884       0.00000000       0.00000000      -5.21303533
2
Lattice="15.0 0.0 0.0 0.0 17.0 0.0 0.0 0.0 22.4" Properties=species:S:1:pos:R:3:local_energy:R:1:hirshfeld_v:R:1:forces:R:3 energy_soap=-2.86695213 energy_2b=-0.19291491 energy_3b=0.0 energy_core_pot=0.0 energy_vdw=0.0 energy_exp=0.0 energy_xps=0.0 virial="0.0 0.0 0.0 0.0 0.0 0.0 0.0 0.0 -11.51628341" volume=5712.0 config_type=dimers energy_sigma=0.0014142135623730952 energy=-3.059867 stress="-0.0 -0.0 -0.0 -0.0 -0.0 -0.0 -0.0 -0.0 0.00201616" pbc="T T T"
C       10.00000000      10.00000000      10.00000000      -1.52993352       1.09738107      -0.00000000       0.00000000       4.79845142
C       10.00000000      10.00000000      12.40000000      -1.52993352       1.09738107       0.00000000       0.00000000      -4.79845142
2
Lattice="15.0 0.0 0.0 0.0 17.0 0.0 0.0 0.0 22.5" Properties=species:S:1:pos:R:3:local_energy:R:1:hirshfeld_v:R:1:forces:R:3 energy_soap=-2.51412816 energy_2b=-0.0902487 energy_3b=0.0 energy_core_pot=0.0 energy_vdw=0.0 energy_exp=0.0 energy_xps=0.0 virial="0.0 0.0 0.0 0.0 0.0 0.0 0.0 0.0 -10.73387093" volume=5737.5 config_type=dimers energy_sigma=0.0014142135623730952 energy=-2.604377 stress="-0.0 -0.0 -0.0 -0.0 -0.0 -0.0 -0.0 -0.0 0.00187083" pbc="T T T"
C       10.00000000      10.00000000      10.00000000      -1.30218843       1.10277681      -0.00000000       0.00000000       4.29354837
C       10.00000000      10.00000000      12.50000000      -1.30218843       1.10277681       0.00000000       0.00000000      -4.29354837
2
Lattice="15.0 0.0 0.0 0.0 17.0 0.0 0.0 0.0 22.6" Properties=species:S:1:pos:R:3:local_energy:R:1:hirshfeld_v:R:1:forces:R:3 energy_soap=-2.20690328 energy_2b=0.00253296 energy_3b=0.0 energy_core_pot=0.0 energy_vdw=0.0 energy_exp=0.0 energy_xps=0.0 virial="0.0 0.0 0.0 0.0 0.0 0.0 0.0 0.0 -9.60631301" volume=5763.0 config_type=dimers energy_sigma=0.0014142135623730952 energy=-2.20437 stress="-0.0 -0.0 -0.0 -0.0 -0.0 -0.0 -0.0 -0.0 0.00166689" pbc="T T T"
C       10.00000000      10.00000000      10.00000000      -1.10218516       1.10705509      -0.00000000       0.00000000       3.69473577
C       10.00000000      10.00000000      12.60000000      -1.10218516       1.10705509       0.00000000       0.00000000      -3.69473577
2
Lattice="15.0 0.0 0.0 0.0 17.0 0.0 0.0 0.0 22.7" Properties=species:S:1:pos:R:3:local_energy:R:1:hirshfeld_v:R:1:forces:R:3 energy_soap=-1.93885589 energy_2b=0.07242416 energy_3b=0.0 energy_core_pot=0.0 energy_vdw=0.0 energy_exp=0.0 energy_xps=0.0 virial="0.0 0.0 0.0 0.0 0.0 0.0 0.0 0.0 -8.27561596" volume=5788.5 config_type=dimers energy_sigma=0.0014142135623730952 energy=-1.866432 stress="-0.0 -0.0 -0.0 -0.0 -0.0 -0.0 -0.0 -0.0 0.00142967" pbc="T T T"
C       10.00000000      10.00000000      10.00000000      -0.93321586       1.11030899      -0.00000000       0.00000000       3.06504295
C       10.00000000      10.00000000      12.70000000      -0.93321586       1.11030899       0.00000000       0.00000000      -3.06504295
2
Lattice="15.0 0.0 0.0 0.0 17.0 0.0 0.0 0.0 22.8" Properties=species:S:1:pos:R:3:local_energy:R:1:hirshfeld_v:R:1:forces:R:3 energy_soap=-1.70436215 energy_2b=0.11456726 energy_3b=0.0 energy_core_pot=0.0 energy_vdw=0.0 energy_exp=0.0 energy_xps=0.0 virial="0.0 0.0 0.0 0.0 0.0 0.0 0.0 0.0 -6.94369811" volume=5814.0 config_type=dimers energy_sigma=0.0014142135623730952 energy=-1.589795 stress="-0.0 -0.0 -0.0 -0.0 -0.0 -0.0 -0.0 -0.0 0.00119431" pbc="T T T"
C       10.00000000      10.00000000      10.00000000      -0.79489744       1.11274761      -0.00000000       0.00000000       2.47989218
C       10.00000000      10.00000000      12.80000000      -0.79489744       1.11274761       0.00000000       0.00000000      -2.47989218
2
Lattice="15.0 0.0 0.0 0.0 17.0 0.0 0.0 0.0 22.9" Properties=species:S:1:pos:R:3:local_energy:R:1:hirshfeld_v:R:1:forces:R:3 energy_soap=-1.49889067 energy_2b=0.13127838 energy_3b=0.0 energy_core_pot=0.0 energy_vdw=0.0 energy_exp=0.0 energy_xps=0.0 virial="0.0 0.0 0.0 0.0 0.0 0.0 0.0 0.0 -5.73757169" volume=5839.5 config_type=dimers energy_sigma=0.0014142135623730952 energy=-1.367612 stress="-0.0 -0.0 -0.0 -0.0 -0.0 -0.0 -0.0 -0.0 0.00098255" pbc="T T T"
C       10.00000000      10.00000000      10.00000000      -0.68380615       1.11461027      -0.00000000       0.00000000       1.97847300
C       10.00000000      10.00000000      12.90000000      -0.68380615       1.11461027       0.00000000       0.00000000      -1.97847300
2
Lattice="15.0 0.0 0.0 0.0 17.0 0.0 0.0 0.0 23.0" Properties=species:S:1:pos:R:3:local_energy:R:1:hirshfeld_v:R:1:forces:R:3 energy_soap=-1.31955986 energy_2b=0.12821134 energy_3b=0.0 energy_core_pot=0.0 energy_vdw=0.0 energy_exp=0.0 energy_xps=0.0 virial="0.0 0.0 0.0 0.0 0.0 0.0 0.0 0.0 -4.67767902" volume=5865.0 config_type=dimers energy_sigma=0.0014142135623730952 energy=-1.191349 stress="-0.0 -0.0 -0.0 -0.0 -0.0 -0.0 -0.0 -0.0 0.00079756" pbc="T T T"
C       10.00000000      10.00000000      10.00000000      -0.59567426       1.11610262      -0.00000000       0.00000000       1.55922634
C       10.00000000      10.00000000      13.00000000      -0.59567426       1.11610262       0.00000000       0.00000000      -1.55922634
2
Lattice="15.0 0.0 0.0 0.0 17.0 0.0 0.0 0.0 23.1" Properties=species:S:1:pos:R:3:local_energy:R:1:hirshfeld_v:R:1:forces:R:3 energy_soap=-1.16504638 energy_2b=0.11152213 energy_3b=0.0 energy_core_pot=0.0 energy_vdw=0.0 energy_exp=0.0 energy_xps=0.0 virial="0.0 0.0 0.0 0.0 0.0 0.0 0.0 0.0 -3.74357369" volume=5890.5 config_type=dimers energy_sigma=0.0014142135623730952 energy=-1.053524 stress="-0.0 -0.0 -0.0 -0.0 -0.0 -0.0 -0.0 -0.0 0.00063553" pbc="T T T"
C       10.00000000      10.00000000      10.00000000      -0.52676213       1.11736517      -0.00000000       0.00000000       1.20760442
C       10.00000000      10.00000000      13.10000000      -0.52676213       1.11736517       0.00000000       0.00000000      -1.20760442
2
Lattice="15.0 0.0 0.0 0.0 17.0 0.0 0.0 0.0 23.2" Properties=species:S:1:pos:R:3:local_energy:R:1:hirshfeld_v:R:1:forces:R:3 energy_soap=-1.03501714 energy_2b=0.08718054 energy_3b=0.0 energy_core_pot=0.0 energy_vdw=0.0 energy_exp=0.0 energy_xps=0.0 virial="0.0 0.0 0.0 0.0 0.0 0.0 0.0 0.0 -2.93076573" volume=5916.0 config_type=dimers energy_sigma=0.0014142135623730952 energy=-0.947837 stress="-0.0 -0.0 -0.0 -0.0 -0.0 -0.0 -0.0 -0.0 0.0004954" pbc="T T T"
C       10.00000000      10.00000000      10.00000000      -0.47391830       1.11847047      -0.00000000       0.00000000       0.91586429
C       10.00000000      10.00000000      13.20000000      -0.47391830       1.11847047       0.00000000       0.00000000      -0.91586429
2
Lattice="15.0 0.0 0.0 0.0 17.0 0.0 0.0 0.0 23.3" Properties=species:S:1:pos:R:3:local_energy:R:1:hirshfeld_v:R:1:forces:R:3 energy_soap=-0.92931977 energy_2b=0.06084345 energy_3b=0.0 energy_core_pot=0.0 energy_vdw=0.0 energy_exp=0.0 energy_xps=0.0 virial="0.0 0.0 0.0 0.0 0.0 0.0 0.0 0.0 -2.24451295" volume=5941.5 config_type=dimers energy_sigma=0.0014142135623730952 energy=-0.868476 stress="-0.0 -0.0 -0.0 -0.0 -0.0 -0.0 -0.0 -0.0 0.00037777" pbc="T T T"
C       10.00000000      10.00000000      10.00000000      -0.43423816       1.11943949      -0.00000000       0.00000000       0.68015544
C       10.00000000      10.00000000      13.30000000      -0.43423816       1.11943949       0.00000000       0.00000000      -0.68015544
2
Lattice="15.0 0.0 0.0 0.0 17.0 0.0 0.0 0.0 23.4" Properties=species:S:1:pos:R:3:local_energy:R:1:hirshfeld_v:R:1:forces:R:3 energy_soap=-0.8472507 energy_2b=0.0370288 energy_3b=0.0 energy_core_pot=0.0 energy_vdw=0.0 energy_exp=0.0 energy_xps=0.0 virial="0.0 0.0 0.0 0.0 0.0 0.0 0.0 0.0 -1.67226298" volume=5967.0 config_type=dimers energy_sigma=0.0014142135623730952 energy=-0.810222 stress="-0.0 -0.0 -0.0 -0.0 -0.0 -0.0 -0.0 -0.0 0.00028025" pbc="T T T"
C       10.00000000      10.00000000      10.00000000      -0.40511095       1.12026551      -0.00000000       0.00000000       0.49184205
C       10.00000000      10.00000000      13.40000000      -0.40511095       1.12026551       0.00000000       0.00000000      -0.49184205
2
Lattice="15.0 0.0 0.0 0.0 17.0 0.0 0.0 0.0 23.5" Properties=species:S:1:pos:R:3:local_energy:R:1:hirshfeld_v:R:1:forces:R:3 energy_soap=-0.78712338 energy_2b=0.0182162 energy_3b=0.0 energy_core_pot=0.0 energy_vdw=0.0 energy_exp=0.0 energy_xps=0.0 virial="0.0 0.0 0.0 0.0 0.0 0.0 0.0 0.0 -1.18924858" volume=5992.5 config_type=dimers energy_sigma=0.0014142135623730952 energy=-0.768907 stress="-0.0 -0.0 -0.0 -0.0 -0.0 -0.0 -0.0 -0.0 0.00019846" pbc="T T T"
C       10.00000000      10.00000000      10.00000000      -0.38445359       1.12093593      -0.00000000       0.00000000       0.33978531
C       10.00000000      10.00000000      13.50000000      -0.38445359       1.12093593       0.00000000       0.00000000      -0.33978531
2
Lattice="15.0 0.0 0.0 0.0 17.0 0.0 0.0 0.0 23.6" Properties=species:S:1:pos:R:3:local_energy:R:1:hirshfeld_v:R:1:forces:R:3 energy_soap=-0.74621038 energy_2b=0.004967 energy_3b=0.0 energy_core_pot=0.0 energy_vdw=0.0 energy_exp=0.0 energy_xps=0.0 virial="0.0 0.0 0.0 0.0 0.0 0.0 0.0 0.0 -0.78707167" volume=6018.0 config_type=dimers energy_sigma=0.0014142135623730952 energy=-0.741243 stress="-0.0 -0.0 -0.0 -0.0 -0.0 -0.0 -0.0 -0.0 0.00013079" pbc="T T T"
C       10.00000000      10.00000000      10.00000000      -0.37062169       1.12144648      -0.00000000       0.00000000       0.21863102
C       10.00000000      10.00000000      13.60000000      -0.37062169       1.12144648       0.00000000       0.00000000      -0.21863102
2
Lattice="15.0 0.0 0.0 0.0 17.0 0.0 0.0 0.0 23.7" Properties=species:S:1:pos:R:3:local_energy:R:1:hirshfeld_v:R:1:forces:R:3 energy_soap=-0.72100212 energy_2b=-0.00311001 energy_3b=0.0 energy_core_pot=0.0 energy_vdw=0.0 energy_exp=0.0 energy_xps=0.0 virial="0.0 0.0 0.0 0.0 0.0 0.0 0.0 0.0 -0.47909231" volume=6043.5 config_type=dimers energy_sigma=0.0014142135623730952 energy=-0.724112 stress="-0.0 -0.0 -0.0 -0.0 -0.0 -0.0 -0.0 -0.0 7.927e-05" pbc="T T T"
C       10.00000000      10.00000000      10.00000000      -0.36205607       1.12180670      -0.00000000       0.00000000       0.12948441
C       10.00000000      10.00000000      13.70000000      -0.36205607       1.12180670       0.00000000       0.00000000      -0.12948441
2
Lattice="15.0 0.0 0.0 0.0 17.0 0.0 0.0 0.0 23.8" Properties=species:S:1:pos:R:3:local_energy:R:1:hirshfeld_v:R:1:forces:R:3 energy_soap=-0.70764821 energy_2b=-0.0066291 energy_3b=0.0 energy_core_pot=0.0 energy_vdw=0.0 energy_exp=0.0 energy_xps=0.0 virial="0.0 0.0 0.0 0.0 0.0 0.0 0.0 0.0 -0.27419021" volume=6069.0 config_type=dimers energy_sigma=0.0014142135623730952 energy=-0.714277 stress="-0.0 -0.0 -0.0 -0.0 -0.0 -0.0 -0.0 -0.0 4.518e-05" pbc="T T T"
C       10.00000000      10.00000000      10.00000000      -0.35713865       1.12203850      -0.00000000       0.00000000       0.07215532
C       10.00000000      10.00000000      13.80000000      -0.35713865       1.12203850       0.00000000       0.00000000      -0.07215532
2
Lattice="15.0 0.0 0.0 0.0 17.0 0.0 0.0 0.0 23.9" Properties=species:S:1:pos:R:3:local_energy:R:1:hirshfeld_v:R:1:forces:R:3 energy_soap=-0.70242922 energy_2b=-0.00641086 energy_3b=0.0 energy_core_pot=0.0 energy_vdw=0.0 energy_exp=0.0 energy_xps=0.0 virial="0.0 0.0 0.0 0.0 0.0 0.0 0.0 0.0 -0.15571215" volume=6094.5 config_type=dimers energy_sigma=0.0014142135623730952 energy=-0.70884 stress="-0.0 -0.0 -0.0 -0.0 -0.0 -0.0 -0.0 -0.0 2.555e-05" pbc="T T T"
C       10.00000000      10.00000000      10.00000000      -0.35442004       1.12217087      -0.00000000       0.00000000       0.03992619
C       10.00000000      10.00000000      13.90000000      -0.35442004       1.12217087       0.00000000       0.00000000      -0.03992619
2
Lattice="15.0 0.0 0.0 0.0 17.0 0.0 0.0 0.0 24.0" Properties=species:S:1:pos:R:3:local_energy:R:1:hirshfeld_v:R:1:forces:R:3 energy_soap=-0.70213706 energy_2b=-0.00366648 energy_3b=0.0 energy_core_pot=0.0 energy_vdw=0.0 energy_exp=0.0 energy_xps=0.0 virial="0.0 0.0 -0.0 0.0 0.0 0.0 -0.0 0.0 -0.08971208" volume=6120.0 config_type=dimers energy_sigma=0.0014142135623730952 energy=-0.705804 stress="-0.0 -0.0 0.0 -0.0 -0.0 -0.0 0.0 -0.0 1.466e-05" pbc="T T T"
C       10.00000000      10.00000000      10.00000000      -0.35290177       1.12223396       0.00000000       0.00000000       0.02242802
C       10.00000000      10.00000000      14.00000000      -0.35290177       1.12223396      -0.00000000       0.00000000      -0.02242802
2
Lattice="15.0 0.0 0.0 0.0 17.0 0.0 0.0 0.0 20.4" Properties=species:S:1:pos:R:3:local_energy:R:1:hirshfeld_v:R:1:forces:R:3 energy_soap=-3.39736484 energy_2b=5.98972518 energy_3b=0.0 energy_core_pot=42.59516273 energy_vdw=0.0 energy_exp=0.0 energy_xps=0.0 virial="0.0 0.0 -0.0 0.0 0.0 0.0 -0.0 0.0 130.22466875" volume=5202.0 config_type=dimers energy_sigma=0.0014142135623730952 energy=45.187523 stress="-0.0 -0.0 0.0 -0.0 -0.0 -0.0 0.0 -0.0 -0.02503358" pbc="T T T"
C       10.00000000      10.00000000      10.00000000      21.29794310       0.72284444       0.00000000       0.00000000    -325.56167188
H       10.00000000      10.00000000      10.40000000      23.88957996       0.60498185      -0.00000000       0.00000000     325.56167188
2
Lattice="15.0 0.0 0.0 0.0 17.0 0.0 0.0 0.0 20.5" Properties=species:S:1:pos:R:3:local_energy:R:1:hirshfeld_v:R:1:forces:R:3 energy_soap=-3.53028168 energy_2b=4.6257172 energy_3b=0.0 energy_core_pot=19.62283907 energy_vdw=0.0 energy_exp=0.0 energy_xps=0.0 virial="0.0 0.0 -0.0 0.0 0.0 0.0 -0.0 0.0 86.0016502" volume=5227.5 config_type=dimers energy_sigma=0.0014142135623730952 energy=20.718275 stress="-0.0 -0.0 0.0 -0.0 -0.0 -0.0 0.0 -0.0 -0.01645177" pbc="T T T"
C       10.00000000      10.00000000      10.00000000       9.94441374       0.78668040       0.00000000       0.00000000    -172.00330041
H       10.00000000      10.00000000      10.50000000      10.77386085       0.70102655      -0.00000000       0.00000000     172.00330041
2
Lattice="15.0 0.0 0.0 0.0 17.0 0.0 0.0 0.0 20.6" Properties=species:S:1:pos:R:3:local_energy:R:1:hirshfeld_v:R:1:forces:R:3 energy_soap=-1.30609846 energy_2b=2.48124399 energy_3b=0.0 energy_core_pot=7.47342504 energy_vdw=0.0 energy_exp=0.0 energy_xps=0.0 virial="0.0 0.0 0.0 0.0 0.0 0.0 0.0 0.0 47.63071901" volume=5253.0 config_type=dimers energy_sigma=0.0014142135623730952 energy=8.648571 stress="-0.0 -0.0 -0.0 -0.0 -0.0 -0.0 -0.0 -0.0 -0.00906734" pbc="T T T"
C       10.00000000      10.00000000      10.00000000       4.89288906       0.89443515      -0.00000000       0.00000000     -79.38453168
H       10.00000000      10.00000000      10.60000000       3.75568152       0.74534507       0.00000000       0.00000000      79.38453168
2