      50
 Properties=species:S:1:pos:R:3:velocities:R:3:forces:R:3:local_energy:R:1:fix_atoms:S:3 Lattice="9.9905032156        0.0000000000    0.0000000000    0.0000000000    9.9905032156    0.0000000000    0.0000000000    0.0000000000    9.9905032156" temperature=7412676.12192664 pressure=**************** time_step=0.5000 time=0.000000 energy=-134.164906 energy_soap=-123.93733241  energy_2b=-10.63189530 energy_3b=0.40432169 energy_core_pot=0.00000000 energy_vdw=0.00000000 energy_exp=0.00000000 energy_xps=0.00000000 virial="-38.62605067         40.22797545     10.09899405     40.22797545    -15.65179501     10.77407909     10.09899405     10.77407909    -29.92692695" stress="0.03873631           -0.04034280     -0.01012782     -0.04034280      0.01569647     -0.01080483     -0.01012782     -0.01080483      0.03001235" volume=997.153669 step=0
 H              2.52058844       3.89455437       4.56440727      -2.45622295       1.74170559       3.57034011       0.17058420       0.42713799       1.10842137      -1.16180347 F F F
 H              5.66287860       6.34255393       4.44489532      -0.01510619      -1.90582626       4.48663280      -0.32075707      -0.31610050       1.94086438      -1.66953299 F F F
 H              7.23880791       5.98600713       8.78641036       0.88355672       2.29265018       5.50918460       0.61515037       0.43927523       0.81662121      -0.65715550 F F F
 H              2.39776029       9.49664894       6.45115404      -1.78684522       1.41499851      -0.28095437       1.76250628      -0.11836286       1.52626892      -0.94342232 F F F
 H              5.29710195       5.86141340       5.74100316       3.07014195      -6.31954653       7.98455563       2.49181737      -0.17262795      -0.09406322      -1.56837049 F F F
 H              1.96638054       2.95921933       0.97028501      -1.42065457       4.53895514       1.40238706      -0.42304833      -1.00172972      -0.13098990      -1.55114989 F F F
 H              1.92186078       2.87413526       7.67693069      -1.81414784      -1.43925324      -0.72233768       2.26182910       1.08418886      -0.13214053      -1.25629591 F F F
 H              4.55328908       5.12217374       0.94007359      -2.83782609       1.09066687      -1.40816119       0.12820098      -0.44276215      -0.56370395      -2.90551438 F F F
 H              3.83274192       3.57760286       0.05042158       0.12999485      -2.53780056      -0.35829880       0.02567772      -0.68381286      -0.30087561      -2.78221560 F F F
 H              9.77907454       8.36704757       0.54145818       0.57561212       0.05979038      -5.23332978      -1.39824676       3.20965834       5.09869529      -1.87422739 F F F
 H              8.18585128       2.32460551       6.99544882       0.66571248       2.99298737      -0.87528012       1.16489866      -1.35022099      -2.66172721      -1.78837125 F F F
 H              8.92016032       8.37548250       3.30913341       4.45160720      -1.24585416      -2.36197361      -3.31373540       0.44328860      -0.99610530      -1.78285574 F F F
 H              7.13464126       7.17210177       0.70846326      -2.29180043      -3.63199066      -1.30927499      -0.17388691      -2.11333143      -0.64018213      -2.23374207 F F F
 H              5.12294681       1.43266904       3.04734416      -2.44415052      -3.16363595      -3.05953425      -0.14645759      -0.86155342       1.58447933       0.11969893 F F F
 H              8.53513885       3.96535596       5.69719667       1.83621498      -1.88711843       1.51437873       1.21073153       1.66104097       3.72740878      -1.11665451 F F F
 H              6.22336148       1.81414316       9.60232835       0.39754459      -0.28603236      -0.91913711      44.73308189      74.45136276      63.20326582       6.36561803 F F F
 H              1.12413428       5.53194134       6.00753339       0.32426203      -2.24624111      -2.33428486       0.36933849      -0.79586401       0.03568767      -0.43796998 F F F
 H              4.55548154       4.41515090       0.24271998       0.39944754       0.53312661       0.85407350      -0.29877262       0.07629556       1.04213026      -1.45584036 F F F
 H              0.60380033       5.71596550       1.86865095       1.24776022       6.21311450       3.27953810      -0.30908037      -0.41625704       0.12305715      -1.40277019 F F F
 H              0.89304685       9.42029757       0.70155585      -0.84022858      -0.29064987       1.23484703       2.78303119      -0.71362168       1.78495668      -1.09700866 F F F
 H              9.06038419       1.23907310       6.24909811      -4.25490392      -3.10384872       2.49812632      -1.81824253       2.90918947       1.08928402      -1.29743780 F F F
 H              3.45748492       3.30767744       7.36684111       1.77524645       2.85494713      -0.77848751      -1.00845920       1.48454390      -0.80953266      -1.88962952 F F F
 H              7.71261074       8.21929567       0.67474358      -0.67825094       1.59248461      -1.55676243       1.56823043       0.41798471      -0.30009604      -1.97825793 F F F
 H              1.77066313       1.60865599       0.05357957       1.03680036      -2.44947956       0.81865749      -1.19713849      -1.53530393       1.72633406      -2.10272462 F F F
 H              6.45338398       3.96466950       7.16544822       1.44147973      -2.49553814       0.28653246      -1.35899295       2.08454460       0.30970674      -1.02177231 F F F
 H              9.08415251       4.40763159       0.89261939       4.51343824      -0.44048160       0.57439000       0.59798086       1.01405020      -0.43115473      -2.34739218 F F F
 H              2.78416719       7.28422844       2.54570714      -0.28309646      -0.57815844       2.69960445      -0.16703901      -0.22920245      -0.16594432      -0.33917594 F F F
 H              5.76034803       0.69530757       5.75531713      -0.15815983      -0.49188553       0.58690131      -2.05874164      -0.56031476      -0.31458155      -0.98133175 F F F
 H              7.50363046       7.62659145       1.49483472       2.02374546       1.92743314       3.32780522       0.10565541       0.75235419       0.91404278      -1.44252135 F F F
 H              0.69910151       2.98683205       4.37561145      -4.12694971      -2.16535051       2.78182019      -1.47135665       1.51227477       1.03730435      -1.43386499 F F F
 C              3.86588533       4.44080108       6.34204189       0.62939101       0.66362280       0.23708939      -0.19060294      -3.51301318      -2.22317872      -5.70719747 F F F
 C              0.88673721       0.37644122       0.22855055      -0.11089950       1.58544781       0.72991163      -1.56461822       3.54029508      -1.14907794      -6.41952650 F F F
 C              6.05323337       4.65369711       6.16665841      -2.14476627      -0.20707895       0.06664593      -0.09545518      -4.76709764      -2.24800590      -6.88495974 F F F
 C              4.31428856       0.63198387       3.80633857      -0.61697060      -0.86730520      -0.51253563       1.59216244       2.72023166      -0.48792748      -3.74787001 F F F
 C              7.37349390       8.48363973       2.96874332      -0.03628278      -0.52112632      -0.29053424       3.39161584      -1.94389094       0.18270689      -4.56930871 F F F
 C              4.34345211       2.50426113       2.20377954      -0.44792091      -0.23993161      -0.00980704       0.41831364      -3.18042780       0.06677977      -6.50868822 F F F
 C              5.24832431       3.32805558       5.17896067      -0.67935464       0.20232808      -0.53034810       0.49136861       2.35760220       2.54264158      -6.89930733 F F F
 C              9.69814547       7.62461025       9.89335530       0.41130542       0.30704454      -1.15544728       0.06366382      -6.39266021      -5.88178289      -5.25626267 F F F
 C              0.77093475       9.20282119       8.64534652       0.16131908      -0.82371696      -0.35809241      -0.99949723       0.40948785       3.97554893      -4.92816041 F F F
 C              6.99394213       3.69513573       5.68924434       0.16910501      -0.23982712      -0.27260684      -2.91308363       0.69692412      -1.35467713      -8.24078037 F F F
 C              8.92861559       3.55720440       4.78446975      -0.30055578       0.30623952       0.14109825       0.68159288      -2.45452884      -3.12765239      -4.98112978 F F F
 C              0.03370051       4.97592905       8.87424912      -0.77939056       0.35306695      -0.37867244      -2.11425596       2.53135656       5.25464813      -3.97326056 F F F
 C              0.22123562       0.77117463       1.90678919      -0.42458349      -0.25483294       0.40297141       2.36470660      -0.44069779      -4.41035124      -4.50500356 F F F
 C              5.77855523       1.62333454       0.65207299      -0.14914728       0.67526093       0.58480520      21.00788314      14.76746222     -31.73424717      -3.03557285 F F F
 C              9.50877702       5.42594143       0.56159496       0.60513533       0.79582314       0.60257074       2.05994647      -0.16813648      -4.04063369      -6.70752513 F F F
 C              5.15543292       1.09920710       1.25911916       1.94116604       0.47633022      -0.19067057     -23.84893114     -13.87943514      26.59161981      -6.39967615 F F F
 C              0.68697628       4.32261759       2.65948712       0.87748434      -1.71973878      -0.62465609      -0.22203962      -0.02027193      -1.67263739      -4.12170657 F F F
 C              4.33614068       9.46863524       7.35791076       0.41937872       0.04189558      -0.02149288       3.83866009      -3.08720430      -2.51106873      -3.28700750 F F F
 C              5.98537117       1.41283316       9.25379676       0.63290924       0.38293450       0.10480943     -44.10591236     -71.44024837     -57.55868516       0.55226165 F F F
 C              5.85932821       8.08924170       7.03621064      -0.10385560      -0.12375594      -0.39298834      -4.38027622       3.60812851       0.25854906      -2.51053199 F F F
      50
 Properties=species:S:1:pos:R:3:velocities:R:3:forces:R:3:local_energy:R:1:fix_atoms:S:3 Lattice="9.9905032156        0.0000000000    0.0000000000    0.0000000000    9.9905032156    0.0000000000    0.0000000000    0.0000000000    9.9905032156" temperature=7123181.68076849 pressure=**************** time_step=0.5000 time=10.000000 energy=-133.563652 energy_soap=-116.72746291  energy_2b=-17.47024527 energy_3b=0.63405604 energy_core_pot=0.00000000 energy_vdw=0.00000000 energy_exp=0.00000000 energy_xps=0.00000000 virial="-67.99974099         -8.22604774      3.00184504     -8.22604774    -49.46962661     20.38542219      3.00184504     20.38542219    -24.17128190" stress="0.06819384            0.00824953     -0.00301041      0.00824953      0.04961084     -0.02044361     -0.00301041     -0.02044361      0.02424028" volume=997.153669 step=20
 H              9.26387267       7.56531168       0.92052030      -2.35377832       3.02905917       3.70330617       1.16827167       0.23858254      -0.12160363      -0.98573280 F F F
 H              5.35332811       7.93788564       7.56078472      -0.03042800      -1.81284202       4.18457536       0.57541138      -0.97366150      -0.46115909      -1.60194787 F F F
 H              4.93725859       8.84847675       1.89259266       0.58458444       2.30084606       5.01268607      -0.06227525      -1.80507664       1.48866452      -0.79157426 F F F
 H              4.95348608       3.40490910       4.31181689      -1.68480840       1.37389142      -0.18975663       2.95623250      -0.23282600      -1.93785272      -1.86777146 F F F
 H              6.04359858       3.70384118       3.50144668       3.01387587      -6.05451014       7.53053096      -3.06197931      -0.86311773       2.07559431      -1.56348864 F F F
 H              0.31165560       3.95395830       8.78986560      -0.21776790       2.36384443      -2.05738032      -1.30674994      -1.99276741      -0.41602007      -1.34254098 F F F
 H              1.39489312       1.27473606       7.77563283       0.03851754      -0.88703109      -1.08222984       0.88955678       1.66560694       1.01757153      -1.37062322 F F F
 H              6.68576669       5.45188714       7.47057380      -2.69665814       1.00294454      -1.30418794      -1.54811064       1.46395440      -1.40289022      -1.41536155 F F F
 H              5.03323221       8.88123488       6.56524772       0.09839792      -2.38384377      -0.36139757      -2.07409700      -0.18445021      -0.51192091      -1.99967669 F F F
 H              7.17769445       0.89673544       8.94873226       1.05165503       0.12696339      -5.16283464       2.36690751      -1.79591592      -0.70845136      -1.88868300 F F F
 H              6.02661294       1.65339455       7.94080779       1.46816997       2.86571490      -1.26889446       0.28231150       2.31207856       1.39207253      -1.68717982 F F F
 H              1.45925329       9.79198483       7.95477590       4.07427084      -2.44178264      -2.66707876       1.12700417      -0.42647698       1.10531800      -1.57599427 F F F
 H              5.99404449       0.97924468       7.70859680      -2.03445318      -3.54852942      -1.26838699      -0.32163951      -3.28071363      -1.02835370      -1.89272692 F F F
 H              5.18871417       2.97287574       0.81970451      -3.74575344      -4.72062389      -3.45768199      -1.47623364      -2.53038854       0.22098198      -2.42672723 F F F
 H              6.44331785       5.62654710       0.69613892       1.72313673      -1.80019921       1.45504190       2.28702743      -1.75766582      -1.60848355      -1.31051059 F F F
 H              4.56686142       2.14122100       0.90244671       2.86228910       2.10733950      -1.90154245       1.89780809       3.65534112      -0.22948814      -2.50415251 F F F
 H              2.07457119       4.14821699       2.60173912       0.01279850      -2.03465914      -2.38668460       1.34118258      -0.26987364      -2.92592010      -1.84839914 F F F
 H              8.46176810       9.23794133       8.53555490       0.58498157       0.16034546       0.94526118       8.43926254      -4.12495340       8.03672279      -1.84221645 F F F
 H              9.17878379       5.52023661       5.61055406       0.57554347       5.62896578       3.50854833       0.87301025       1.17629792       1.49694990      -1.18469055 F F F
 H              1.12379825       7.02450326       2.18073850      -1.64243474      -0.20135341       1.43367192      -0.81017160       0.04391968      -0.58878062      -0.47570836 F F F
 H              8.73244690       2.10508172       1.80397914      -3.62786538      -2.58321209       2.66939876      -2.41069108       0.42200806       1.03486033      -1.15412043 F F F
 H              3.43233122       0.43230997       5.02012734       1.58764145       3.72818806      -0.53631861       1.00724586       1.28818016       0.25470532      -2.00452613 F F F
 H              0.80226062       4.17860392       5.89488781      -0.71566858       1.58409638      -1.37648446      -1.64472014      -0.94302086       1.45261541      -1.14882976 F F F
 H              1.12922462       9.04130219       9.05876334       0.83633988      -2.14481219       0.96117683      -1.03789494       0.73815866       1.03578539      -2.14818401 F F F
 H              0.24724902       9.11209146       0.27895825       1.33918823      -2.48343354       0.33580284       0.23158796      -0.22151990      -0.53307756      -1.93543122 F F F
 H              1.51734461       2.04370928       2.48469267       3.78424288      -2.98421244      -0.88189738      -1.73550838       0.83575079      -1.18365616      -1.44105848 F F F
 H              9.83016603       1.76716528       9.12959923      -0.29569568      -0.47365689       2.74146437       7.16080092      29.48929560      51.51961245       3.04445951 F F F
 H              4.65906491       6.03502992       9.02130694      -0.75393886       1.66518289       1.17287969       0.60438184       0.30571220      -0.23938530      -0.56876024 F F F
 H              7.05961815       6.54230657       4.19443112       1.96091238       1.87676260       3.18114533      -1.90122775       1.60486270       1.60909699      -1.56477507 F F F
 H              9.87732265       2.08115458       1.41783236      -3.98553377      -2.01381897       2.61516795       2.54964421       0.04245419      -0.85401918      -1.45258814 F F F
 C              9.76964500       1.44300307       8.54977428       0.60121207       0.68714976       0.21350635      -6.53378976     -29.07035863     -55.53768899      -3.38346423 F F F
 C              0.07418577       6.70836862       7.56357128       0.02734556       1.80477173       0.73293206      -2.17456416       2.15383447      -3.85707171      -4.58807069 F F F
 C              5.44670735       1.99807516       6.56559713      -2.06052079      -0.36079409       0.08796360      -3.47809946      -6.10029679      -3.90421795      -5.17036581 F F F
 C              9.73345818       2.86960359       7.00371999      -0.02904749      -0.52976852      -1.17326399       1.79660987      -0.01538788       2.62290727      -4.71145019 F F F
 C              6.99411202       3.38214342       0.19633065      -0.03394826      -0.49649082      -0.27104968       1.37820429       4.31417653       0.77980275      -3.75644040 F F F
 C              9.74025717       0.32228176       2.42658345      -0.54359490      -0.09071750       0.24490744      -2.91497825       3.26824133       1.62709304      -5.76599195 F F F
 C              8.10715237       5.21939265       9.97557697      -0.77754602       0.16898539      -0.50815545      -3.66989273      -2.96636809       1.27670194      -3.40762368 F F F
 C              2.56997624       0.72447811       8.63291029       0.25578949       0.30269815      -1.09284067      -4.25392961      -1.05239208      -0.56351069      -4.35625329 F F F
 C              3.95227584       1.76383223       5.32327884       0.40235102      -0.62369498      -0.28920868       3.64768104      -0.27434813       3.46609871      -5.47569891 F F F
 C              8.67573187       1.38053229       2.99917200       0.16841556      -0.22841508      -0.26176689       4.16597630      -3.29435418      -2.51241867      -5.49932355 F F F
 C              5.88558734       6.51170246       6.33072350      -0.30116013       0.29230849       0.15357909       1.26018399       2.57375099      -1.26474413      -5.70180899 F F F
 C              2.39747310       8.29274896       5.25497073      -0.76281361       0.24399882      -0.29273314       5.60624035       0.39595870       3.12652232      -3.64793533 F F F
 C              6.53184475       7.79931187       5.05093791      -0.29611787      -0.36441283       0.19458665      -2.94150285      -5.42514481       0.19187483      -4.81861861 F F F
 C              3.89786547       8.29824339       6.12108404      -0.19323435       0.54431451       0.54028237      -1.70434675      -0.31389218      -3.65169617      -5.79202981 F F F
 C              5.30582171       3.19200314       6.64344378       0.54852349       0.76506737       0.62045395      -1.20609891       6.93309256      -1.33024705      -6.40677025 F F F
 C              3.05562175       4.35312904       1.40936245       1.32480881       0.07815681       0.52393177      -2.08414931      -1.77546870       1.83771100      -2.85704615 F F F
 C              9.47015497       7.49211463       6.52907597       0.88399565      -1.62108332      -0.61436560       1.60880702      -2.75380668       3.33787859      -4.79896093 F F F
 C              7.83490647       9.57619146       7.98190370       0.26126612       0.01859231       0.08685913      -8.45659551       6.52997951      -6.48855739      -4.42783609 F F F
 C              0.13483786       3.22668128       1.06595657       0.38608220       0.16960999       0.18250264       0.62114655      -0.01628573       0.23754168      -4.72069678 F F F
 C              4.91661697       7.15240841       3.34007895      -0.01416951      -0.02406301      -0.38564635       2.96674989       3.00929441       1.61653146      -2.32774621 F F F
      50
 Properties=species:S:1:pos:R:3:velocities:R:3:forces:R:3:local_energy:R:1:fix_atoms:S:3 Lattice="9.9905032156        0.0000000000    0.0000000000    0.0000000000    9.9905032156    0.0000000000    0.0000000000    0.0000000000    9.9905032156" temperature=6773568.32531863 pressure=**************** time_step=0.5000 time=20.000000 energy=-121.111888 energy_soap=-98.28800137  energy_2b=-22.73554236 energy_3b=-0.08834382 energy_core_pot=0.00000000 energy_vdw=0.00000000 energy_exp=0.00000000 energy_xps=0.00000000 virial="-60.65271077          6.89223952     -2.94244390      6.89223952    -22.07025201     -6.35664312     -2.94244390     -6.35664312    -63.11956507" stress="0.06082584           -0.00691191      0.00295084     -0.00691191      0.02213325      0.00637479      0.00295084      0.00637479      0.06329974" volume=997.153669 step=40
 H              4.53475178       7.27827486       7.02446215      -2.62985217       2.89408215       3.55377324       0.53089609       1.12380090       0.86439206      -1.74712897 F F F
 H              5.40111233       0.60176653       8.54808684       0.04801475      -1.65487386       3.96561304      -1.17657905       0.83147543      -1.22639268      -2.01779613 F F F
 H              0.71388127       1.79664347       0.91485317       0.73600368       3.13359826       4.47762418      -0.48822357      -1.48808413       1.23874341      -1.29242793 F F F
 H              9.03235060       5.27973829       0.12857109       0.27654307      -0.74728659      -0.57263656      -0.48760768       1.05248373       1.43179515      -1.30803134 F F F
 H              2.56715552       2.56723878       4.94706480       4.02461642      -6.08436046       6.83082779       0.53015929       0.28906571       0.20005331      -0.92511873 F F F
 H              8.94413998       7.99414882       9.47429544      -0.10101696       2.37275414      -1.85973303       0.09470451      -0.51485683       0.17393959      -2.75429278 F F F
 H              2.20107565       2.57776498       7.56346132       0.12880058      -0.85882133      -0.96671891       0.55441229       1.60125701      -0.89063339      -1.18325110 F F F
 H              0.16495503       4.91762652       5.04637791      -2.55805518       0.90996052      -1.17862537       1.06297292       0.69180356      -2.70284851      -1.34173916 F F F
 H              3.34713526       3.20847302       1.76358306      -0.31299824      -2.63196652      -0.72987919      -1.06255648       1.74102552      -1.94401873      -1.78396182 F F F
 H              8.89484660       2.65181444       7.35253679       1.19208088       0.21468098      -5.08865719      -0.47908508       0.24652275      -1.22773455      -2.15724301 F F F
 H              0.26514743       9.56701917       6.50208358       1.36300583       2.72156632      -1.07850980      -0.18275243      -0.00587728       2.08397461      -1.01643885 F F F
 H              8.67384430       6.04279538       1.61614369       2.58519258      -2.34391994      -1.56507987      -0.93751704      -1.30027537       0.82147997      -2.59319296 F F F
 H              5.81442194       6.36228884       3.96458924      -1.99318372      -3.34876494      -1.40127655       0.16156266      -1.13057457      -0.34278629      -0.69133851 F F F
 H              7.63768627       2.97385234       7.15655488      -5.59535419      -5.23202199      -3.28629665       0.96812567       0.10986294       1.09552230      -2.05579340 F F F
 H              1.54916035       8.51431764       4.71439274       1.40389795      -1.60856888       1.33096812      16.06814083      14.26681734      -8.58765879      -1.85421207 F F F
 H              1.98388964       2.75256399       2.18612455       2.65518503       1.99951353      -1.82869419      -0.38270413       0.60273080      -0.11668983      -2.22707586 F F F
 H              2.07690789       4.45370105       9.18237510       0.01339411      -1.91140232      -2.25739396       1.41645549      -1.48418988       1.50456106      -1.37602421 F F F
 H              4.35146340       0.83157984       7.89870726       0.57488470       0.12119676       0.91773124       0.96013297      -0.70841604       1.31345180      -1.62437480 F F F
 H              4.60914367       2.07448093       9.61195659       0.52637342       5.53391092       3.32316167      -0.13610307       2.32334727      -0.24915075      -1.31243230 F F F
 H              1.18791150       8.20833338       4.89044744      -2.24734326       0.24747669       1.17480837     -15.56475658     -12.65891854       6.73976819      -1.39628513 F F F
 H              2.90854915       6.99643530       7.84475610      -3.48598696      -2.44467662       2.53440382      -0.32862788       1.29371062       1.47501609      -1.72305020 F F F
 H              8.78251337       7.19589510       9.60618197       1.48172693       3.55036748      -0.49478920      -0.25194706       0.96336742      -0.22454005      -2.95696799 F F F
 H              3.52875673       9.47795478       2.62890011      -0.73258147       1.44502743      -1.27992259       2.11016562       1.78207974       0.97460458      -1.56553850 F F F
 H              8.47044104       8.49521571       7.73211639       0.65396406      -1.99061905       0.81134560      -0.07029965       1.62820189      -0.83501910      -1.25772995 F F F
 H              3.01249511       4.23429928       3.87026927       1.23166717      -2.43618519       0.34243089       0.33041661       0.78140010      -1.39636943      -1.72761905 F F F
 H              8.41371425       2.85342174       3.95472237       3.59417925      -2.83458534      -0.80735448       0.16805442       0.55660999       0.08048871      -0.28368763 F F F
 H              5.51143855       1.44915547       3.63553550      -0.53585196       0.40155786       1.94287434      -1.90720535      -3.03044849      -0.95355659      -1.87380751 F F F
 H              7.50038703       2.24839523       0.52608888      -0.76668750       1.61492097       1.11016072     -20.79257919      22.60613488      -0.76692422      -0.02303516 F F F
 H              1.94641781       1.17382696       2.76636507       1.57676083       1.36666882       4.94743851      -1.59359101      -1.32845465       0.18079139      -2.48034828 F F F
 H              0.29765240       2.34516836       6.92865921      -3.87504021      -1.87902029       2.50134592      -0.94929861       0.14459866       1.04607351      -1.83356961 F F F
 C              4.24186111       7.68015137       0.50333462      -0.25594048       0.44773136       0.18175399       2.87752675      -0.12703471      -3.72971787      -2.32795706 F F F
 C              0.93701252       4.63140684       3.18591886       0.09410996       1.74748536       0.51827164       0.71640097       0.37336899       2.36164366      -2.96189386 F F F
 C              4.74799540       8.75929192       7.04709220      -2.02148625      -0.30113906      -0.07380799       0.82247842      -0.23204737      -0.48361095      -7.88650039 F F F
 C              2.66078064       8.29164237       8.64450161       0.54075802      -0.40078516      -0.58284346       2.81644635       3.29868539      -2.41702064      -6.35482149 F F F
 C              6.55222083       8.44220957       7.67133207      -0.16281589      -0.57586213      -0.12101881     -25.38288064     -29.47666213      21.03052417      -3.84513565 F F F
 C              3.95720961       0.22095225       5.25378165      -0.57155244       0.09781221       0.29957152       0.48966602      -0.64347633      -0.12812775      -2.48689767 F F F
 C              0.71397731       6.65476693       5.22226961      -0.69525187       0.12017130      -0.45633476      -0.41271456      -2.69535791       2.02698357      -2.76759443 F F F
 C              5.72385999       3.33663952       8.30689302       0.31339574       0.24791978      -0.99756077      -1.28654239       0.87512231      -2.72041881      -3.01842249 F F F
 C              7.96159191       5.69250961       2.58783447       0.39595193      -0.58506578      -0.26787332       0.98682389      -0.14994473      -1.33839931      -2.84958017 F F F
 C              7.05168076       9.18976479       7.16358855      -0.30720157      -0.16925083      -0.80199943      21.86161396      27.93174769     -18.60998064      -4.33972685 F F F
 C              3.18254908       9.52955106       7.87575522      -0.27425885       0.29029146       0.15492871      -0.21825386      -4.31011058       0.60464124      -6.41569078 F F F
 C              5.10740307       0.24146487       2.79353733      -0.70147504       0.15347887      -0.20058420      -2.23551011       0.48035445       3.14342697      -4.14154594 F F F
 C              3.53225739       4.22678979       7.06567071      -0.30405398      -0.35293931       0.21811639       1.82439737      -1.28152738       1.46968659      -2.34847409 F F F
 C              3.09662565       3.65427977       0.50848339      -0.06729770       0.52400832       0.41908833       1.61563235      -1.23182967       0.38517607      -4.50024960 F F F
 C              0.85689349       0.57657477       2.57899273       0.55143456       0.72318379       0.57221008       2.88501982       2.43627191      -0.90935838      -3.85039216 F F F
 C              6.02375433       5.14190706       6.53656811       1.26392180       0.08434494       0.48201113      -2.36026821      -3.03330217       1.54000667      -1.73338810 F F F
 C              8.03236280       1.68248966       0.53778684       0.83404431      -1.54063976      -0.58253845      21.77518863     -22.34927960       0.17732755      -1.57670160 F F F