      50
 Properties=species:S:1:pos:R:3:velocities:R:3:forces:R:3:local_energy:R:1:fix_atoms:S:3 Lattice="9.9905032156        0.0000000000    0.0000000000    0.0000000000    9.9905032156    0.0000000000    0.0000000000    0.0000000000    9.9905032156" temperature=5788.35417223 pressure=22944.74625208 time_step=0.5000 time=0.000000 energy=-210.129190 energy_soap=-235.63792550  energy_2b=22.20686735 energy_3b=3.30186810 energy_core_pot=0.00000000 energy_vdw=0.00000000 energy_exp=0.00000000 energy_xps=0.00000000 virial="-31.26212063        -15.05768081      2.67323294    -15.05768081     15.52407368     -9.44620084      2.67323294     -9.44620084    -14.74512178" stress="0.03135136            0.01510066     -0.00268086      0.01510066     -0.01556839      0.00947316     -0.00268086      0.00947316      0.01478721" volume=997.153669 step=0
 H              7.11936894       3.32949456       8.01031207      -0.04152737      -0.06533190      -0.00310154      -2.99595731      -1.58817133      -2.50692221      -2.53904859 F F F
 H              9.20425255       0.29837208       8.03873100       0.02620920       0.01562558      -0.02313972       0.25320625       0.19011788      -0.11044215      -2.84346189 F F F
 H              4.02059452       1.82335239       9.89727776      -0.07151684      -0.00864658      -0.09293901      -1.63043358      -0.58453613       0.75217335      -1.78795737 F F F
 H              6.40110345       2.91606744       7.39146188      -0.00375802       0.13069229       0.00124766       2.89202739       1.77747962       2.44661903      -2.62553654 F F F
 H              0.59184420       2.38921473       8.18565230       0.13923999       0.04476491       0.04760283       0.15493156      -0.78810315      -0.22478742      -1.79854391 F F F
 H              2.68450643       1.47354001       4.82099627       0.03764692      -0.03213594       0.00563859      -0.16922329      -0.78083639      -0.20359176      -3.02166617 F F F
 H              5.76948094       0.21608835       7.29451151       0.10162008      -0.04730280       0.02255111       3.06510846       2.38001372      -1.82011983      -2.59048050 F F F
 H              3.50917626       7.90580210       1.14414452       0.12167098       0.01439742      -0.00662025       0.53770761      -1.36624176      -0.31019281      -1.44000498 F F F
 H              8.94733469       0.16049944       0.08359790      -0.01725022       0.01684357      -0.29187446       1.87296190      -2.98175964       0.76120616      -2.28406599 F F F
 H              9.58166848       9.06543108       0.32382045      -0.03998449       0.04955754      -0.09769030      -1.77856967       2.98261747      -0.12997518      -1.95484216 F F F
 H              9.51947380       1.40106624       6.14109005      -0.07668803       0.13254239      -0.02961522       0.27678933       2.42181661      -1.13788558       0.69297681 F F F
 H              1.06337042       4.43284856       2.95671839      -0.01810415      -0.04367687      -0.07160015      -1.01975077      -0.46136436      -1.06038072      -2.68584000 F F F
 H              3.50611482       3.73654495       4.17108376       0.07709466      -0.03194818      -0.10151013      -0.97967202       2.06232194      -0.20627344      -1.48030230 F F F
 H              1.85946900       1.17516878       9.68690582       0.09575742       0.00216321       0.00617768       1.21317150       0.01739776       1.02156263      -1.50829085 F F F
 H              4.59319845       9.09976212       8.86010060       0.07480971       0.12736006      -0.08233697      -0.42055557       0.29690038       0.10992282      -3.05980010 F F F
 H              2.62031645       0.76251624       4.51708007      -0.01671935       0.12340968      -0.07015158      -0.26898897       0.34581873       0.61282905      -2.92472432 F F F
 H              4.53754204       9.37842110       8.10319205       0.09063359      -0.08786180      -0.10151513      -1.28314132      -1.05326786       1.65199449      -2.49843811 F F F
 H              1.81749941       6.77653501       4.99935019      -0.14104472      -0.02438746      -0.02550797      -0.51795566       0.28978632       0.21350925      -1.46165756 F F F
 H              1.80395693       8.04345212       3.26054847      -0.04683650      -0.12477433       0.06914359       1.68887598      -0.15012179      -1.45159822      -1.38771627 F F F
 H              0.34151331       1.90775693       1.79050420      -0.01772731       0.01641695       0.03602841      -0.63311458      -0.60554104      -0.22236658      -2.94518991 F F F
 H              0.37253870       4.02862303       2.66016927       0.01322720      -0.11110867      -0.02924945       1.36874883       0.86353143       0.47485633      -3.01257257 F F F
 H              2.78194877       4.01538062       1.23433519      -0.09810484      -0.04299516       0.01315439       0.08725558      -1.77823578      -3.12004308      -2.56688856 F F F
 H              2.06510907       3.36901631       7.49424352      -0.00652166      -0.02693589       0.01964756      -0.00498932      -0.40508924      -0.70803789      -2.82760906 F F F
 H              1.91918115       4.27124516       4.59917076      -0.06578061       0.06149431      -0.06271907       1.75802519       1.21948878      -0.16908645      -1.65750988 F F F
 H              6.45542054       0.78992231       6.96823944      -0.00834483      -0.06128501       0.07330105      -1.05614819      -1.25037677       0.66685309      -2.74336920 F F F
 H              1.71278355       2.83827372       7.01634766       0.07453401      -0.02881381      -0.02966949       0.04303277       0.56047122       0.83556383      -2.51305575 F F F
 H              9.62330789       1.57681010       1.84582421      -0.02862003      -0.02833558      -0.00017295       0.38620927      -0.10563635       0.08057817      -2.97825437 F F F
 H              2.85674566       3.52707456       0.26502265       0.03538517       0.10887451      -0.03144541      -0.41263913       1.65877819       3.47463791      -2.58825065 F F F
 H              0.79718273       7.80159447       5.21747945       0.06064450      -0.08380872      -0.00006799       0.25199447      -0.45589683      -0.24765307      -1.11900454 F F F
 H              3.24559448       7.96308106       5.60547129       0.14052334       0.10580728       0.05232438      -0.98942954       3.32464778       2.85655367      -1.71740355 F F F
 C              8.44021667       0.79183768       4.13082975      -0.01291003      -0.00638178       0.02056588      -0.69337563      -1.67637813      -1.42194295      -8.12802994 F F F
 C              4.22239697       6.50322804       4.42672686       0.00607635       0.01703240      -0.00612862       0.23608733      -6.54150696      -3.29872388      -5.66940738 F F F
 C              4.60181295       9.82331208       2.89468868       0.02118300       0.01338637       0.00832324       1.41372601       0.17956595      -1.48779495      -7.67010745 F F F
 C              0.38592721       9.46183734       4.76948801       0.01690197       0.01370854       0.01114687      -1.46065712      -1.21645722      -6.51798102      -7.67464196 F F F
 C              3.76633867       9.87484632       0.91592212      -0.00842867       0.01572183       0.00679913      11.15387882     -14.24047592       6.15113225       0.03800082 F F F
 C              8.29612390       0.24982623       5.62268347       0.00463381      -0.02947058      -0.02586770       0.35557732      -0.80263036       0.86678308      -7.76631650 F F F
 C              1.80096697       8.67484697       2.16145877       0.03514771      -0.00806910      -0.01601459       0.80982021       0.24335052       1.03109542      -8.18391138 F F F
 C              2.89273569       5.38907366       3.76577114       0.00304898      -0.00468103      -0.00517609       1.30468428      -2.37194276       1.65375514      -7.51619679 F F F
 C              0.58353355       9.07687272       2.31201795       0.00354285      -0.00858002       0.00160234      -4.86422649       1.13251670       0.87566114      -7.72595360 F F F
 C              8.78699689       0.23787734       7.03758897      -0.03416493      -0.03337789       0.00730724      -0.68198217      -0.74221990      -1.74147564      -8.12670941 F F F
 C              3.21246698       8.86437128       1.47045580      -0.02924645       0.03076275       0.00917214      -4.93268420      -4.51558226       2.38420004     -10.24875601 F F F
 C              0.80152610       9.54281000       5.94245751      -0.00772524      -0.01647857       0.02120526       2.18143142       0.71146476       5.55334220      -6.60003124 F F F
 C              9.01441261       1.54110792       5.15740076      -0.01993865       0.00679484      -0.02345791      -2.21798529       0.40831415       1.00461442      -4.32950095 F F F
 C              7.45202192       0.39998226       2.37972081      -0.01829854      -0.02112256       0.01511323      -0.53457083      -2.60865969       2.07092366      -7.27266136 F F F
 C              8.01114024       2.48081989       4.78738234      -0.00124335       0.03829021       0.01293055       1.85009950      -0.17277995       0.69374600      -8.19539831 F F F
 C              6.08092981       9.83791885       2.64993583       0.01230963       0.00828222      -0.02007289       1.47355158       1.11423482      -1.20074240      -5.27106430 F F F
 C              8.80200617       9.07141437       2.84939095      -0.01230508      -0.00946913       0.01117678       2.67827922       3.37748366      -0.67601861      -6.31064166 F F F
 C              5.33467658       0.29239587       1.37538019       0.01728768      -0.01523585       0.01941596      -0.17627711      -1.76619845       1.18153853      -9.24374284 F F F
 C              3.61875097       7.33230803       5.00735310       0.00779125       0.00225402       0.03286248      -0.90716294       0.58251519       0.96153530      -8.29490951 F F F
 C              3.35074545       0.87729143       0.65488569      -0.01649931      -0.00182690      -0.01328045      -8.67769110      22.86937649     -10.41315113     -10.07070142 F F F
      50
 Properties=species:S:1:pos:R:3:velocities:R:3:forces:R:3:local_energy:R:1:fix_atoms:S:3 Lattice="9.9905032156        0.0000000000    0.0000000000    0.0000000000    9.9905032156    0.0000000000    0.0000000000    0.0000000000    9.9905032156" temperature=5720.18914983 pressure=13980.38754807 time_step=0.5000 time=10.000000 energy=-212.867223 energy_soap=-237.78233946  energy_2b=22.50206604 energy_3b=2.41305049 energy_core_pot=0.00000000 energy_vdw=0.00000000 energy_exp=0.00000000 energy_xps=0.00000000 virial="-9.86191243           2.79530160     -0.17612554      2.79530160    -25.17119380    -15.85880671     -0.17612554    -15.85880671    -11.32414512" stress="0.00989006           -0.00280328      0.00017663     -0.00280328      0.02524304      0.01590407      0.00017663      0.01590407      0.01135647" volume=997.153669 step=20
 H              6.41525449       2.97298294       7.61137287      -0.05929766       0.10440575      -0.06652087       1.21548834       3.75193674       0.23372893      -2.68696723 F F F
 H              9.57225156       0.70647960       7.12588895       0.00295096       0.05893347      -0.17560616      -1.27182406      -0.55579581       0.28268343      -0.94929910 F F F
 H              3.45988214       1.64184688       9.33860899       0.03831348      -0.00356243      -0.04905123       1.68197556      -0.39624854       0.27596416      -2.61241535 F F F
 H              6.66179153       3.94582092       7.69610633       0.02118984      -0.04315870       0.04655164      -1.01004871      -3.97979497      -0.43573979      -2.62726700 F F F
 H              2.02273259       2.75472371       8.78814237       0.14052393       0.04990438       0.05842140      -0.26138477       0.64124193      -0.78815070      -2.68018541 F F F
 H              2.83503891       1.30272241       4.66088922      -0.01768629      -0.02969796      -0.06258038       1.54688235      -1.93576094       3.14386630      -2.90276219 F F F
 H              7.21496284       9.62669039       7.27373704       0.18219362      -0.01899646       0.00868915       1.19672892       0.26299316       0.13114373      -2.07315270 F F F
 H              4.30384974       8.13008055       1.20055558       0.01477222       0.02149163       0.00763858      -1.50027579      -0.28892308      -0.15029559      -0.51998595 F F F
 H              8.96869835       9.36460672       8.37723929      -0.03266372      -0.10322138      -0.06130179      -0.50779714       1.26617872       0.16683578      -1.98053109 F F F
 H              8.77495497       0.27872517       9.06611194      -0.08354352       0.10313233      -0.14649722       0.42403741      -1.44020104      -0.36715794      -2.09081847 F F F
 H              9.27210455       2.89182691       5.65120494      -0.00202400       0.11244672      -0.05724840      -0.63171929      -0.16575300      -0.45492297      -1.03851836 F F F
 H              0.88575227       4.08765274       2.14204297      -0.01378407      -0.03391190      -0.06159981      -0.22241275      -0.54590170       0.83156619      -2.99115086 F F F
 H              3.64698407       4.53312500       3.19827496      -0.07845188       0.19540205      -0.06841937      -1.49562756       0.62236346       0.28528950      -3.00254045 F F F
 H              1.87255519       1.03995855       9.68477527      -0.18858751      -0.05093421      -0.03678685       1.72269439      -0.52399364       2.09165689      -2.15965171 F F F
 H              4.84409189       9.69825870       8.03068377      -0.00744913      -0.07245540      -0.11414896       0.10687876      -3.24715719      -0.16031742      -2.73228198 F F F
 H              2.55729084       1.61684073       4.16088024       0.01938089       0.07763730       0.02402686      -1.57534323       1.70534569      -2.71134120      -2.87302447 F F F
 H              4.90733315       8.72743300       7.85952632       0.01145442       0.05490809       0.04448454      -0.30165908       3.40022627       0.41564129      -2.69903568 F F F
 H              0.34532446       6.45851240       4.91896420      -0.07054116      -0.01525767       0.03864747       3.02405885       1.31016362       1.64098293      -1.61866549 F F F
 H              1.93683820       7.22735506       3.02446165       0.05883292      -0.01099732      -0.10523494       0.68353614       1.76504982      -1.12594372      -1.52560448 F F F
 H              9.93918555       1.52299389       1.98854506      -0.04428756      -0.08713013       0.00855565      -0.94573256      -0.88231635      -0.17194933      -2.88881721 F F F
 H              0.69275070       3.40968555       2.54386095       0.05035317       0.00626411      -0.00027743       0.43340490       1.27850325      -0.12905527      -2.96085243 F F F
 H              2.36071191       3.59435465       0.37329692       0.03359228       0.02797922      -0.09771464       1.31083832       2.31545421       1.77925983      -2.62981663 F F F
 H              1.92086898       2.90074715       7.58464554      -0.00632489      -0.05778277      -0.01462761       1.05368031      -0.32601287      -1.25627928      -1.98763244 F F F
 H              2.01442087       5.42702632       3.83942180      -0.04738402       0.11248681      -0.07420125      -3.19354759      -0.35149893      -0.27894749      -2.86280698 F F F
 H              6.99695502       0.86834130       7.49374074       0.08683920       0.00326719       0.04022556       0.25210731       0.19270215      -0.23430642      -1.98998744 F F F
 H              2.57391454       2.70862164       6.70459917       0.07587204      -0.00646196      -0.01747800      -1.20334394       0.21268130       1.36352564      -2.66293066 F F F
 H              9.29990462       1.10734346       1.87646400      -0.05722220      -0.06874003       0.00028949       0.74702039       0.85605307      -0.28192880      -2.64719199 F F F
 H              2.68816237       4.45189661       0.95508351      -0.07647789      -0.00022368       0.07844948      -0.79695183      -2.54033958      -1.43208916      -2.57383678 F F F
 H              1.59490065       6.89456512       5.49504546       0.02963149      -0.08479605       0.02932894      -2.20863322      -0.31418933      -1.07937325      -1.81808597 F F F
 H              4.37268242       8.45883507       5.85179601       0.05068917      -0.07467026      -0.03880730      -2.15413389      -2.46704168      -1.16419811      -2.43958617 F F F
 C              8.28902601       0.63618707       4.23141851      -0.01586781      -0.02366360      -0.00112601      -0.05430901      -1.20069089      -2.32939712      -6.44289804 F F F
 C              4.17532614       6.50581680       4.32169263      -0.02311006      -0.00720966      -0.00518847      -5.40239544      -0.86221153       2.80431554      -6.77289160 F F F
 C              4.86229155       9.96760724       2.92579308       0.02767657       0.01536167       0.00110904      -1.23012779       0.30831271       1.23976362      -9.44945321 F F F
 C              0.50296452       9.58841367       4.74839223       0.00659317       0.01162163      -0.00197013      -1.39418540      -0.41871763       1.77872741      -6.65861841 F F F
 C              3.91559981       9.91069956       1.06961877       0.02054947       0.01398750       0.01321957      -1.79243882       2.85483449      -1.57579827      -8.62910613 F F F
 C              8.40043203       9.95440003       5.43207716       0.01757891      -0.02647722      -0.01171849       1.39761071      -0.42190861       1.03319585      -8.57404823 F F F
 C              1.96811162       8.58272659       2.09919659      -0.02412771      -0.01917261       0.01368744     -10.56271577      -3.73239352       5.01838782      -6.74668240 F F F
 C              3.01577721       5.28451033       3.78580640       0.03581010      -0.00952910       0.00517794       7.76597663       2.91134107       0.99450394      -6.61905628 F F F
 C              0.52831171       8.98516146       2.38454770      -0.00978824      -0.01160630       0.01401116      -0.16522673      -0.63064257       1.51104239      -7.82124562 F F F
 C              8.44767181       9.87522888       7.00459511      -0.02922106      -0.03425262      -0.01120851       0.53552054       0.52889186      -0.53094106      -9.15454076 F F F
 C              2.92286998       8.99839685       1.56915323      -0.00251924       0.01328970      -0.00365393       7.88837862       2.73196716      -4.54236623      -8.11151660 F F F
 C              0.72992929       9.40616631       6.22123513      -0.01119643      -0.01119154       0.01962435      -1.35777698       0.38738949      -3.65483271      -5.73333895 F F F
 C              8.73925300       1.64707606       4.99536304      -0.03145019       0.01625037      -0.01149157      -0.97301242       1.36841637      -0.57768538      -6.75403459 F F F
 C              7.39305866       0.13141156       2.61367012       0.02790998      -0.02666328       0.03322981       9.67225379       0.31185050       3.89433253      -9.59135648 F F F
 C              8.03016194       2.84813664       4.90621398       0.00405103       0.03292458       0.01128823       1.40022249      -1.11129141       0.88625872      -7.44049666 F F F
 C              6.20466327       9.91722554       2.48287303       0.00248562       0.00194406      -0.00470164      -1.07048699      -1.35285022       3.44819581      -0.96651514 F F F
 C              8.76522184       9.11670828       2.95336767       0.00324547       0.01620457       0.01094325       1.83039451       1.42869022       0.33975718      -7.25473528 F F F
 C              5.43581012       0.12597403       1.53653327      -0.00691107      -0.01301147       0.00004390      -5.22038153       1.66452810      -6.76044614      -7.13281418 F F F
 C              3.71341222       7.41889521       5.39224404       0.01881569       0.00822852       0.03528226       3.68030192      -1.97167107      -2.54946583      -6.48866718 F F F
 C              3.10971790       1.24558647       0.31459191      -0.01311977       0.03898286      -0.03400021      -1.06649889      -2.41380927      -0.84769623      -7.29980454 F F F
      50
 Properties=species:S:1:pos:R:3:velocities:R:3:forces:R:3:local_energy:R:1:fix_atoms:S:3 Lattice="9.9905032156        0.0000000000    0.0000000000    0.0000000000    9.9905032156    0.0000000000    0.0000000000    0.0000000000    9.9905032156" temperature=5693.00019865 pressure=9115.23708353 time_step=0.5000 time=20.000000 energy=-215.053090 energy_soap=-248.52762347  energy_2b=31.97396308 energy_3b=1.50057085 energy_core_pot=0.00000000 energy_vdw=0.00000000 energy_exp=0.00000000 energy_xps=0.00000000 virial="-22.33884167          2.39877684      5.51391845      2.39877684    -17.58009488     -1.73379395      5.51391845     -1.73379395    -15.17773434" stress="0.02240261           -0.00240562     -0.00552966     -0.00240562      0.01763028      0.00173874     -0.00552966      0.00173874      0.01522106" volume=997.153669 step=40
 H              6.24469355       4.06678315       7.24669848       0.06828065       0.03132960       0.06110698       1.32027431      -2.64074477       1.84164396      -2.77742161 F F F
 H              9.63762187       1.43172959       6.04002488       0.04033106       0.14478871      -0.07587230       0.84837649       2.01267577      -0.36389163      -0.60761179 F F F
 H              3.87684942       1.25458748       9.23699514      -0.00404249      -0.06213913       0.02464190      -1.40078421       0.23315746      -0.05757139      -2.47573960 F F F
 H              6.56692795       3.36325939       7.75994276      -0.08210762       0.01151369      -0.10109930      -1.02763240       2.56351118      -2.08346756      -2.85027342 F F F
 H              3.24844726       3.26975930       9.38183757       0.10102499       0.03172392       0.08826052      -0.55518539      -1.04828463       0.27768612      -2.13033618 F F F
 H              2.61342643       1.39339110       4.15222396      -0.04021455       0.01882251      -0.07411200      -0.24971646      -1.29228494      -0.54361605      -2.96096816 F F F
 H              6.95314016       8.52151093       7.75388153      -0.08992366      -0.12050547       0.02598727       1.48050671       1.62402574      -0.98132395      -1.65542821 F F F
 H              3.86850451       8.06422045       1.18977133      -0.08801384      -0.02688301      -0.00849934      -0.63603827       0.31527349      -0.11648473      -1.16418488 F F F
 H              8.82426246       8.66518491       7.16951512      -0.01187260      -0.04670115      -0.15327343      -0.17670887      -1.31303154       2.96932824      -1.48411128 F F F
 H              8.44048818       1.30614676       7.65857820       0.11405972       0.12180777      -0.09409562      -1.69563831      -0.29479352       0.61371440      -2.34051357 F F F
 H              8.70030875       4.22664804       4.90356364      -0.12145130       0.12247263      -0.07786001      -1.18337831      -2.15846995       0.49408072      -2.60080057 F F F
 H              0.58165671       3.63289987       1.93252147      -0.03326745      -0.06783933       0.04716676       0.23289030      -0.32532898       1.44330707      -2.77144257 F F F
 H              3.18149952       5.62529780       1.87374484      -0.03661555       0.05999149      -0.09591414      -0.14772134      -0.39629547       0.92459600      -1.71622221 F F F
 H              1.18653601       0.72735884       9.91300574       0.05438344       0.00111102       0.05450968       2.60319542       0.76487993       0.27844795      -1.19312447 F F F
 H              4.77516353       9.11697328       7.18006961       0.01518738      -0.07506476       0.04143912       0.33624513       0.21378816       3.01115036      -2.70299403 F F F
 H              2.75805042       2.01720988       4.44959191       0.03483605       0.02921874       0.05705983       0.27889396       1.14447974       0.37476755      -2.97673247 F F F
 H              4.97039860       9.15823108       8.09565010      -0.01534271       0.06093744      -0.09267914      -0.38743664      -0.07278442      -2.46269539      -2.78505372 F F F
 H              0.72319960       6.72537808       5.94197745       0.03208158       0.05812974       0.12879711       1.37015501      -2.82996305      -2.66998683      -2.40391188 F F F
 H              2.38930727       7.66907264       1.82157071      -0.00419513       0.04538862      -0.10448499      -1.71512973      -0.50764613       0.78296585      -1.26706027 F F F
 H              9.63069050       0.99418923       1.89188363      -0.02651143       0.00993283      -0.06367563      -0.28362343       1.18577220      -1.40824468      -2.57959251 F F F
 H              1.08970486       3.58409072       2.57910793      -0.00197589       0.02529300      -0.01128674      -1.05984204       0.06967469      -0.49930374      -2.82345883 F F F
 H              2.85422334       4.25211383       0.12864992       0.04538062       0.06444790       0.01890032      -0.35835123      -0.39976323       0.73298119      -2.09367241 F F F
 H              2.20741867       2.13162104       6.89970266       0.01463616      -0.08534234      -0.06514388       2.90714822       2.46591582       0.13421594      -2.72248255 F F F
 H              2.18654649       6.05007218       3.32771403       0.08224490       0.00171885      -0.01499857       0.84724862      -1.31064409       0.59725248      -1.25992953 F F F
 H              7.63243542       1.23954992       7.67695796      -0.09368882       0.07179817      -0.01213746       1.08497039       0.05278303       0.26385264      -2.60065832 F F F
 H              2.95431699       2.77195088       6.90314531       0.04936870       0.00955474       0.00770110      -2.94894903      -2.58524568       0.35399389      -2.72232283 F F F
 H              9.05001833       1.03082440       1.40061257       0.03300842       0.05435772      -0.08234371       1.14535140       0.64504825       0.03884442      -2.80431175 F F F
 H              2.28165301       4.08518023       1.00246370       0.03196113      -0.02632482      -0.07280694       1.63357893       0.72662379      -1.52084399      -2.93749238 F F F
 H              1.05705507       5.90507014       5.27316181      -0.02927680      -0.11612906      -0.04211733      -0.83736582       3.10920023       2.44697540      -2.51927834 F F F
 H              4.95303131       8.20746692       5.59276996       0.03636357      -0.01289230      -0.01568359      -2.55780148      -2.26422474      -0.55512228      -2.21175966 F F F
 C              8.14591932       0.40062216       4.20216156      -0.01202222      -0.01969917       0.00053800       0.76083072       1.79623122       2.13083995      -6.32538905 F F F
 C              3.79764999       6.40608090       4.41498785      -0.04222125      -0.00495512       0.02805558       2.70910496       7.05083728       8.08966220      -6.33695075 F F F
 C              5.05111135       0.15381576       2.99504506       0.01261239       0.01976531       0.00851071      -0.30428474       0.19875914      -0.89477450      -7.66380037 F F F
 C              0.52366041       9.66948472       4.80114226      -0.00143342       0.00326023       0.01207794      -0.63577276      -1.38021888       1.63655582      -6.77479752 F F F
 C              3.99310332       0.12028513       1.15089706      -0.00747678       0.02251838       0.00547956      -4.90253461      -0.03925484      -0.06193937      -7.16039606 F F F
 C              8.59801218       9.65908914       5.37182092       0.02008058      -0.03320666       0.00341386      -0.28675688      -0.54686320       2.69290954      -9.02223927 F F F
 C              1.58634637       8.37745004       2.27407423      -0.04114491      -0.01406265       0.01442720       0.26782039       1.84301547      -1.27259473      -7.43618186 F F F
 C              3.37704101       5.40506500       3.89710730       0.03052251       0.02373523       0.00435535      -3.86282839      -2.96359811      -4.44431708      -7.53705335 F F F
 C              0.44921528       8.84592853       2.57374029      -0.00620194      -0.01529654       0.02361499      -0.69748327       0.38552567       1.29198545      -7.76248646 F F F
 C              8.34812135       9.57029229       6.87123866      -0.00213785      -0.03691975      -0.01294712      -0.57662910      -0.99710793      -2.75487113      -8.38011053 F F F
 C              2.96266128       9.17229673       1.47904403       0.00353537       0.01949061      -0.01047230       0.19207310       0.27699244      -0.39408186      -9.47172067 F F F
 C              0.56858221       9.31062158       6.28296599      -0.01867895      -0.00801358      -0.00603625       0.18437076       0.54090970      -2.94173431      -6.35699404 F F F
 C              8.36822865       1.83550350       4.82382281      -0.04133972       0.02164968      -0.02058852      -0.28528573       1.58162429       0.11927546      -8.59421231 F F F
 C              7.74702859       9.83973339       3.01470863       0.02343854      -0.02870566       0.03771920      -5.50848298       0.60508928      -2.62681261      -4.31808574 F F F
 C              8.16095577       3.12722373       5.05792724       0.02256725       0.02410103       0.01663147       1.72363956      -0.41138685      -0.45637485      -7.02762699 F F F
 C              6.35453610       9.92218226       2.49907518       0.02774019      -0.00007364       0.00163485       1.65372551      -0.22492984      -0.76997924      -7.61660444 F F F
 C              8.89158578       9.24824767       3.06398736       0.02644964       0.00300011       0.00892931       5.18775221      -3.44082036      -1.37775308      -9.20329307 F F F