      50
 Properties=species:S:1:pos:R:3:velocities:R:3:forces:R:3:local_energy:R:1:fix_atoms:S:3 Lattice="9.9905032156        0.0000000000    0.0000000000    0.0000000000    9.9905032156    0.0000000000    0.0000000000    0.0000000000    9.9905032156" temperature=7109.88732916 pressure=2641.73342188 time_step=0.5000 time=0.000000 energy=-203.340719 energy_soap=-224.41518568  energy_2b=20.10906090 energy_3b=0.96540626 energy_core_pot=0.00000000 energy_vdw=0.00000000 energy_exp=0.00000000 energy_xps=0.00000000 virial="-23.79167185         12.47419330     -8.00606508     12.47419330    -29.49163906     -7.23015146     -8.00606508     -7.23015146    -31.84857138" stress="0.02385958           -0.01250980      0.00802892     -0.01250980      0.02957582      0.00725079      0.00802892      0.00725079      0.03193948" volume=997.153669 step=0
 H              8.01640626       7.43939859       3.86750599       0.03889612      -0.06630373       0.09184754      -1.43681649       0.03495852       0.85149175      -2.88900843 F F F
 H              0.55847777       5.25265810       7.47853104       0.03986611      -0.01821653      -0.00358338       1.02547395       0.13072850       1.36468051      -2.77476029 F F F
 H              2.79757664       9.03306880       8.17991061      -0.05060632       0.05656710       0.09683867      -0.92501201      -0.66747577       0.39282180      -2.64328383 F F F
 H              5.69955536       4.40017481       5.62720639       0.09380115       0.05357143      -0.05443548       1.07092800      -0.13816606      -0.75877257      -1.70384821 F F F
 H              1.79176711       5.39966500       3.97680026      -0.01447766      -0.01769815      -0.12914128       0.21925185       0.98281360       0.99038603      -1.11725675 F F F
 H              5.59332297       7.97639088       8.48064366      -0.03100050       0.07149171      -0.05719937      -1.04512462      -0.76394522      -0.71392310      -1.55416807 F F F
 H              2.16021279       5.90911831       1.19480533       0.10624570      -0.10027989       0.13622792      -0.27264180       1.13564844       2.20564900      -2.11792254 F F F
 H              1.89931574       3.03471985       5.48485330      -0.06427850      -0.00309354      -0.00622287       0.09057026       2.54906819       2.79823997      -2.65534012 F F F
 H              7.88383729       1.12478271       6.85218138      -0.12683979      -0.15635610       0.06144125      -1.16308321      -0.74597353      -0.77255174      -2.97231278 F F F
 H              9.11156708       3.88332387       6.73818659       0.01241593      -0.09713704       0.02154010      -2.29659596       2.27318150      -0.75192087      -2.38572116 F F F
 H              1.93034233       3.72288802       6.20781003      -0.06044750       0.03439550      -0.07760214      -0.60088990      -2.55645626      -2.53459839      -2.73948565 F F F
 H              8.50137504       2.14062052       0.63077000      -0.07915484       0.04280415      -0.05047026       3.01483437       0.18528356      -0.28114535      -1.93348146 F F F
 H              3.59805027       0.27946531       3.85189038       0.06413541       0.13073141      -0.04719573      -0.25933468      -0.33878071      -0.39852957      -0.71573416 F F F
 H              0.85442308       2.45545556       2.76987074       0.08854292      -0.10830778      -0.03157800       0.65275627       0.36905072      -1.75839822      -2.10909635 F F F
 H              3.94921923       3.90433266       4.97059372      -0.17478314      -0.06569569       0.10787749      -0.28603821       0.41259454      -1.38233368      -1.90915246 F F F
 H              8.94418114       4.01244514       9.26976906       0.05817004       0.04233958       0.00818156       0.79725791      -0.81769359       0.93205911      -1.36624219 F F F
 H              6.00842886       3.15049229       4.20340236       0.11221141       0.09021408       0.07098463      -0.05084942       0.69875458      -1.35343636      -1.56188906 F F F
 H              4.67713965       5.18544263       5.64575390       0.01093246      -0.07641327       0.09219158       0.09957637       1.29249912       1.65629092      -1.63224524 F F F
 H              6.61719308       3.94420903       2.57484200      -0.11583860       0.13073119      -0.06207966       0.09736530      -0.43183793       1.01440471      -1.45933133 F F F
 H              0.49610726       6.08723441       2.03954619      -0.04350331      -0.05862708      -0.10463291       1.03213542       0.82782899       0.62513772      -1.89823308 F F F
 H              7.97367115       2.55326986       2.28736863       0.00999366       0.13227410      -0.29128444      -0.11078297       1.30310322       0.09322571      -2.04702687 F F F
 H              4.32633419       9.30216618       8.43167593       0.02062818       0.07265255      -0.04027410      -0.03051287       0.20523697       0.39553867      -2.01394842 F F F
 H              8.63714121       7.43013367       3.53246609       0.02563018      -0.06970359      -0.00827461       1.43112260      -0.22810314      -0.91969611      -2.72221081 F F F
 H              7.28860606       0.73076125       6.49081697      -0.12932498      -0.09082993      -0.12684685       1.25662814       0.80805176       0.77355391      -2.94590672 F F F
 H              8.66877602       4.88815828       6.74837556      -0.08054276      -0.01577395      -0.04725426       0.14363664      -3.45784619      -0.85998682      -2.34113563 F F F
 H              7.34716173       1.59534901       1.88349128       0.09091320       0.10188776       0.01305875       0.17151385      -0.35138833       0.18910938      -2.16752968 F F F
 H              4.81782679       7.40840042       7.02153076       0.15267058      -0.04816598       0.18452906      -0.20663007       0.22450587       0.60136117      -1.36112179 F F F
 H              5.73976539       5.35017032       0.76849450      -0.00860486       0.07067070      -0.07248584       0.05613444       1.22027349       0.88814808      -0.98049710 F F F
 H              8.16389031       5.97981658       2.34579931      -0.01591035       0.02205172       0.02862447      -0.43481021      -0.16209134      -0.09059114      -1.30686194 F F F
 H              0.25276251       4.95695888       8.20626710      -0.11144325      -0.03196930       0.10853880       1.30059633       0.71775227       0.14686470      -2.72265171 F F F
 C              1.29372539       8.73850272       3.03018625      -0.00117853      -0.00986716      -0.01103333       1.39539397      -0.90866540      -2.65785008      -5.73642957 F F F
 C              3.77684475       6.33340646       4.34669619      -0.02559356       0.02194873       0.01911505       0.15093844       0.91593855       0.43952005      -6.50016413 F F F
 C              1.81623702       8.58684225       1.64454533      -0.00259002      -0.01716424      -0.01836954       1.29400544      -0.40604574       2.97081848      -6.48969584 F F F
 C              2.92940530       7.41305531       5.60724132      -0.00866576       0.01565893      -0.03844116       0.80751679      -2.66397020      -3.40484275      -6.28221258 F F F
 C              0.40483653       3.65442196       0.74264949       0.01286932      -0.00168703      -0.00136283       0.55611311      -4.61612298       1.17469470      -6.64874070 F F F
 C              5.46693650       6.57567093       1.93370497       0.01070026      -0.01254283       0.01393164      -0.77618274       0.42633357      -2.82284396      -6.59704770 F F F
 C              5.91366012       0.38018102       2.98942930       0.00563430       0.01900921       0.00218335      -8.59355601      -1.87586306       3.56294634      -4.45652764 F F F
 C              4.30479575       9.76366313       2.69602446      -0.00908626      -0.00139119       0.01548684       0.66566087       0.11383029       0.16157628      -8.68558756 F F F
 C              4.66175204       1.13806374       3.12154857       0.02229331       0.01205145      -0.01676151       0.26133547      -0.24319913       0.65878971      -7.09839658 F F F
 C              2.43246882       6.65898978       4.10252903      -0.00074789      -0.00186164      -0.00602501       0.32991789      -1.12646693       1.58921692      -6.67970933 F F F
 C              9.90894067       2.08322795       0.72002166       0.00403427      -0.00410315       0.00537257       1.66895570       4.76170757       1.23952363      -7.50655964 F F F
 C              6.74339335       0.66896144       2.23674483      -0.00521655       0.00929227       0.01804914       5.70236986       2.74793407      -3.90012930      -8.52948308 F F F
 C              3.44022115       8.78221246       9.05851898      -0.02493821       0.04189345      -0.00606084       2.37565143       0.73245376      -2.03992977      -7.98376095 F F F
 C              5.69269591       7.18557909       0.60535156       0.02316156       0.00091184       0.01134340      -2.26830575      -1.22513775       2.48657012      -6.56343663 F F F
 C              3.45035130       8.25641721       1.71553374      -0.01716141      -0.03941620      -0.01321081       0.23793863       1.53591218      -0.04709166      -6.61277560 F F F
 C              1.97211124       6.61231815       2.32010975       0.02577941       0.00278300       0.01065410      -2.71429043      -1.83233934      -2.84597866      -7.97967244 F F F
 C              3.79036921       8.29266219       0.21024222       0.00459524      -0.02273533      -0.01451545       0.09015315      -1.18184051       2.89586589      -8.10674527 F F F
 C              4.61585206       5.20021499       4.55302027       0.02108715       0.01203285       0.00738344      -1.33548155      -0.48312376       0.54024284      -8.63818305 F F F
 C              1.15622434       2.64334300       1.61942091       0.00117022       0.00433897       0.03324075      -5.89088430       0.61141628      -2.22223685      -6.60006540 F F F
 C              3.70169409       7.24990318       2.75646693      -0.02086623      -0.03149078       0.00488750       2.70209075       0.00567277      -1.12194113      -8.89812099 F F F
      50
 Properties=species:S:1:pos:R:3:velocities:R:3:forces:R:3:local_energy:R:1:fix_atoms:S:3 Lattice="9.9905032156        0.0000000000    0.0000000000    0.0000000000    9.9905032156    0.0000000000    0.0000000000    0.0000000000    9.9905032156" temperature=6716.76912065 pressure=17909.15524096 time_step=0.5000 time=10.000000 energy=-204.976973 energy_soap=-238.53678893  energy_2b=33.40312689 energy_3b=0.15668883 energy_core_pot=0.00000000 energy_vdw=0.00000000 energy_exp=0.00000000 energy_xps=0.00000000 virial="-24.27248973          4.47157115     -1.18167838      4.47157115    -10.06570005     10.14756080     -1.18167838     10.14756080    -17.30772099" stress="0.02434177           -0.00448434      0.00118505     -0.00448434      0.01009443     -0.01017653      0.00118505     -0.01017653      0.01735713" volume=997.153669 step=20
 H              8.69291972       6.81071798       4.44363844       0.07868606      -0.06316338       0.02761002      -0.62944607      -0.03388011      -0.19312178      -3.26074063 F F F
 H              0.67318980       4.81804984       8.10960107      -0.01930867      -0.05872781       0.07800724      -0.23746276       0.06102085      -0.84147658      -2.31206307 F F F
 H              2.03353021       9.40920652       9.10057687       0.00989235       0.00811344       0.09659892       3.20807321      -0.55922910      -0.40280939      -2.55726875 F F F
 H              6.66080897       5.02112393       4.51732078       0.03340705       0.18654947      -0.12040765       0.46745969      -2.06066771       0.32129457      -2.58598449 F F F
 H              1.46117844       5.43864901       3.18283734      -0.07550715       0.02119080      -0.04447260      -1.13285054       0.54202883      -0.01805418      -0.81235031 F F F
 H              5.30756433       7.71379914       7.65419935       0.01583858      -0.07732754      -0.01587304       0.18582012       0.75825194       1.30136432      -1.24113722 F F F
 H              2.65920407       5.29717389       2.51886428      -0.00522782      -0.04961247       0.04728915      -0.59915056      -0.28380459      -2.18972276      -0.60813606 F F F
 H              1.07459221       3.03663291       5.67596415      -0.10638015       0.04341902       0.00740181      -0.54889292       2.64963592      -0.47896833      -2.38845064 F F F
 H              6.05691393       9.38839576       6.55758556      -0.18451725      -0.15615867      -0.08466893       1.54908910       1.48092228      -0.84184133      -2.90541602 F F F
 H              8.81917527       3.86175277       6.85816515      -0.00252400      -0.00004987       0.02390901      -1.74290772      -0.52918196      -1.87573288      -2.82204819 F F F
 H              1.12294607       3.98837881       5.40898955      -0.07968345      -0.02147677      -0.04223798       0.16226065      -2.76417625       1.14020913      -2.27236060 F F F
 H              8.42623455       2.90510044       0.25133380      -0.01118064       0.13648592      -0.02137530      -0.74688219       1.17327578      -1.00380111      -1.71958339 F F F
 H              3.95409154       2.01633617       3.54487839       0.03146186       0.21992763      -0.02887603       1.88293061      -1.63133917      -1.54003471      -2.04345416 F F F
 H              1.73775956       1.65400570       2.32029442       0.06554315      -0.01572233      -0.06721393      -0.82607290       1.79335922      -0.40637487      -1.91474073 F F F
 H              2.60308509       3.71228534       5.73119314      -0.09816480       0.02807232       0.06264222       0.40233635       0.80151203      -0.26179529      -1.99817001 F F F
 H              0.00498017       4.39223060       9.43259679       0.15526141       0.05730712       0.01924549       0.55659993       0.01695235       1.13057933      -2.25632371 F F F
 H              7.13771759       4.15619058       4.72121786       0.16487114      -0.00980982       0.01201433      -1.56678135       2.68574198      -1.18254767      -2.58287880 F F F
 H              4.60947621       4.78189253       5.97228601      -0.02871553      -0.00901504      -0.07419303       0.01271712       0.75113298      -2.61402383      -2.04432807 F F F
 H              5.52039876       5.64608676       2.19633236      -0.10753133       0.16900117      -0.01296359      -0.10665771     -14.38811320       3.92943001      -0.28980679 F F F
 H              0.41806337       5.65526136       1.22809105       0.01947965      -0.05614544      -0.06807846       0.49098760      -0.88580600       0.04623911      -1.36758125 F F F
 H              7.92290605       3.80187085       9.44811451       0.00449532       0.04535550      -0.25863490       0.90678259      -2.07145927       1.59395708      -2.14592307 F F F
 H              3.87737708       9.86877615       8.54327415      -0.09860419       0.03003508       0.04521739       2.17359087       2.30889978      -1.95142143      -2.53519020 F F F
 H              8.52384739       6.58180643       3.65299856      -0.02926968      -0.09267984       0.02681556       0.75676607      -0.16510930       0.13834655      -1.63412825 F F F
 H              6.58998818       0.00123762       6.17862709      -0.06724401      -0.09417426       0.03572885      -1.72059756      -1.92923680       1.11096527      -2.85530218 F F F
 H              8.07718963       3.64189095       6.10440743      -0.05808963      -0.12974120      -0.06536922       2.83914983       0.43008336       2.84321879      -2.52775391 F F F
 H              7.65541080       1.85844720       2.30333424      -0.03998439      -0.07541758       0.05456263      -1.01077719      -1.62464072      -0.27632203      -2.50876342 F F F
 H              6.23099387       7.63759145       9.29055928       0.08495044       0.07468132       0.20571172      -0.57256663      -0.21551902       0.09655878      -1.85614059 F F F
 H              5.68202114       6.39873767       0.08320707      -0.00491635       0.08052729      -0.13410091      -0.04797423      -1.47398636      -1.81968441      -1.60416759 F F F
 H              7.80676599       6.28107476       2.59539104      -0.06468650       0.04180204       0.02088052      -1.35498503       0.15779620      -0.31051232      -2.37176031 F F F
 H              9.57502033       4.81714509       8.84379645      -0.04098425      -0.00849330       0.03081514       0.50268977      -0.04253255      -0.44688206      -2.01970905 F F F
 C              1.32928960       8.61608413       2.83019243       0.00691822      -0.01295120      -0.02566082       0.37531690       0.22521657      -0.32592402      -6.44804973 F F F
 C              3.62815539       6.52340462       4.59787361       0.00339166       0.00833064       0.03067834       7.20886907      -5.74759902       0.45321905      -5.14140879 F F F
 C              1.83377547       8.41327488       1.55704482       0.00528497      -0.01595395      -0.00276071       0.93949025       0.38355457       0.48338867      -5.95913364 F F F
 C              2.85485014       7.45453153       5.11610622      -0.00870289       0.00019174      -0.04972182      -1.70888365       3.92132286       4.19388347      -7.03903276 F F F
 C              0.55494948       3.47772884       0.80820281       0.01596518      -0.02691141       0.01348478      -0.18010411       1.75121902      -0.24154692      -6.87064551 F F F
 C              5.55506873       6.47293179       1.99443414       0.00831454      -0.00383650       0.00021195       0.79998151      14.67179224      -4.76932485      -8.28088795 F F F
 C              5.75395088       0.48132823       3.09874081      -0.01169615       0.00194086       0.00639040       5.29600060      -2.59375134      -2.82342383      -3.88239435 F F F
 C              4.26737267       9.74300317       2.81745185       0.00281783      -0.00021235       0.00840296       1.96271714       2.51894046      -0.18424631      -8.46748456 F F F
 C              4.82906133       1.23602119       2.98774113       0.00110482       0.00975697      -0.00911681      -7.19865080       2.55723482       1.46092327      -6.90327400 F F F
 C              2.38973787       6.64132613       4.06418204      -0.01068283      -0.00026304      -0.00599424      -2.88623827      -0.64153442      -2.75129671      -6.68808012 F F F
 C              0.06238918       2.20314692       0.80901761       0.02033019       0.02345599       0.01104035      -1.76559602       0.19426764      -0.94488018      -7.67018989 F F F
 C              6.91909096       0.87870219       2.28602288       0.02329864       0.02754729       0.00514901      -2.09543039       0.24179961       2.61844975      -8.06055063 F F F
 C              3.31604810       9.19009895       9.01901517      -0.00954683       0.03509154       0.00228657      -3.86287551      -5.35715899       4.82516854      -6.98229421 F F F
 C              5.83470829       7.13166832       0.81609544       0.00709875      -0.00835051       0.03064441      -1.13355330       0.87532669       2.14828548      -7.92992410 F F F
 C              3.29858938       7.94797293       1.54307374      -0.01242734      -0.02175380      -0.02369449       0.87194351       1.87792024      -2.14021252      -7.08914974 F F F
 C              2.17119022       6.52327487       2.38845922       0.01650724      -0.02378115       0.01020221      -0.78042317      -4.39082676       1.90887315      -7.88234236 F F F
 C              3.82381402       8.08174426       0.10067742       0.00079578      -0.01434284      -0.01100569      -1.14542809       2.65203176      -0.47889446      -8.04234330 F F F
 C              4.74685302       5.35590952       4.70954111       0.00154598       0.02260158       0.02425597      -2.79890921       2.10688281       2.35007611      -7.35201086 F F F
 C              0.98446951       2.70274226       1.79523899      -0.02563641       0.00248695       0.00703639       1.90073017      -2.10851193       1.00265977      -7.41000181 F F F
 C              3.61365847       6.96863925       2.77868498       0.00388809      -0.02194777      -0.00130788       2.94779523       1.90994177      -1.78221345      -8.83611343 F F F
      50
 Properties=species:S:1:pos:R:3:velocities:R:3:forces:R:3:local_energy:R:1:fix_atoms:S:3 Lattice="9.9905032156        0.0000000000    0.0000000000    0.0000000000    9.9905032156    0.0000000000    0.0000000000    0.0000000000    9.9905032156" temperature=6688.47940756 pressure=26843.14847899 time_step=0.5000 time=20.000000 energy=-207.575563 energy_soap=-235.33788976  energy_2b=27.47632205 energy_3b=0.28600482 energy_core_pot=0.00000000 energy_vdw=0.00000000 energy_exp=0.00000000 energy_xps=0.00000000 virial="-14.81943111        -12.73634490     -2.23111696    -12.73634490    -17.12393104      4.62974708     -2.23111696      4.62974708     -2.66332405" stress="0.01486173            0.01277270      0.00223749      0.01277270      0.01717281     -0.00464296      0.00223749     -0.00464296      0.00267093" volume=997.153669 step=40
 H              9.26524179       6.11957558       4.33919466       0.07012979      -0.06235486      -0.03009695       0.96402459       0.67091633      -0.29941858      -3.30498420 F F F
 H              0.42274788       4.23821669       8.57269378      -0.04155938      -0.05757003       0.01038461      -0.16319740      -0.30525269      -0.70642230      -2.14851023 F F F
 H              2.15406150       9.72464191       9.74882185      -0.04469492       0.07481615       0.02633826       1.36731192      -0.32744681      -1.50180927      -2.17932232 F F F
 H              6.85714330       6.18657754       3.48703076      -0.01637895       0.09599694      -0.10682711      -0.41173554      -0.48847419       0.87861932      -2.22769957 F F F
 H              0.50766034       6.00561514       2.51429968      -0.07233814       0.08622069      -0.08825787       1.48055840       0.38508816      -0.02555203      -1.42570798 F F F
 H              5.48133864       7.16968108       8.05241894       0.03167596      -0.06200346       0.14440124       0.87902454      -0.78153091       3.30569780      -2.69251011 F F F
 H              2.35388005       4.78588192       2.25489692      -0.04224869      -0.01303637      -0.05499772       0.20018809       1.63419376       0.50310178      -1.95514475 F F F
 H              9.77737722       3.57694031       5.88108003      -0.06194094       0.06421028      -0.00760222       3.49157815       0.81023219      -1.39199368      -2.70471125 F F F
 H              4.94017609       8.38982419       5.73578264      -0.08750882      -0.09004741      -0.05615212       0.62573863       0.05522750       2.61444093      -2.72300659 F F F
 H              8.14752021       3.49208334       6.51847456      -0.10175322       0.00496202      -0.02586313      -1.35996642       2.74349550       1.14933436      -0.80508630 F F F
 H              0.63461104       3.71930006       5.17922344      -0.03629404      -0.00899272       0.03515589      -0.04643933       0.39292880       2.08299479      -2.32769040 F F F
 H              8.26170390       4.51759379       9.39477855       0.02682916       0.17837611      -0.11588222       1.22946121       0.14251908       0.61778383      -2.87783869 F F F
 H              4.87589743       3.02457835       2.81073191       0.10675209       0.01612716      -0.09290264      -1.13885047       0.21434095       0.12826641      -2.05658019 F F F
 H              1.96490611       2.22454897       1.86237344      -0.00937040       0.10470463       0.00346963       0.39186818      -0.17855713       1.31770745      -1.43535755 F F F
 H              1.70838858       4.20620976       6.13672845      -0.11036950       0.04763778       0.00590198      -0.97978402      -0.50506250      -0.97071397      -1.57978189 F F F
 H              1.60204752       4.58698347       0.06454215       0.17936268      -0.02656119       0.08957418       0.98092427      -0.75253861      -0.50181965      -1.80402238 F F F
 H              8.39749205       4.64023502       4.88807786       0.11917463       0.06093014       0.03126068      -0.22480871      -0.21566524       0.02860571      -2.94721870 F F F
 H              4.50360352       4.22772876       5.10491745       0.02403392      -0.06933310      -0.06655894       0.99148460       2.51273812       0.02687126      -1.69801142 F F F
 H              4.49153474       4.30883918       2.89752417      -0.06984497      -0.18252801       0.09026394       0.76086474      -1.60378448       0.15213571      -2.22350240 F F F
 H              0.76758265       4.58429592       0.66928962       0.03034679      -0.15164887      -0.01688104      -1.23525075      -0.14725712       1.42003871      -2.19715962 F F F
 H              8.40014807       3.85169871       7.52258734       0.05714610      -0.00715302      -0.15881118       0.00465503      -0.14559290       0.43829384      -2.98213222 F F F
 H              3.48133379       0.47376255       8.60277179      -0.04304183      -0.03778174       0.04169622       0.08527118      -2.37943592       0.79324287      -2.71144018 F F F
 H              8.59315901       5.65741622       4.28688067       0.03048507      -0.10569804       0.08421868      -0.00739128      -0.16824836      -0.25220100      -1.60726788 F F F
 H              5.17626376       8.34680096       6.62958746      -0.17111062      -0.17601557       0.00714561      -0.95568946       0.68135257      -3.59387907      -2.72121785 F F F
 H              8.18646722       2.90231276       6.08217853      -0.00563306      -0.11969159      -0.02917321      -1.22288694      -4.37370993      -2.10909696      -3.01849582 F F F
 H              8.04719813       1.91686762       2.80758701       0.02368329      -0.00783871       0.02291211      -1.99169651      -1.82716077      -1.02101722      -1.94860706 F F F
 H              6.78458271       8.04545549       1.65115505       0.00948665       0.01778776       0.19876763      -0.81800300       0.77214028      -2.32988808      -1.29889924 F F F
 H              5.73413549       7.08211525       8.96732779       0.01293018       0.07749542      -0.12718922      -0.14402138       0.08222915      -2.23541618      -2.43807317 F F F
 H              6.60120673       6.66881010       2.68238297      -0.16412104      -0.00394330       0.03197662       0.83398823      -1.71382989       1.93612017      -1.72411721 F F F
 H              9.07716839       4.59934026       9.00110088      -0.08707553      -0.04742194       0.02035118      -0.78450540       0.19997699       1.04100538      -2.16442118 F F F
 C              1.37939660       8.51311045       2.63845323       0.00131375      -0.00826847      -0.00818764      -0.62603491      -0.26420233       2.44516871      -7.26333844 F F F
 C              3.84798790       6.44505632       4.91406211       0.01674700      -0.00263488       0.03153837     -12.88677165      11.51084892      -1.32363486      -6.76190601 F F F
 C              1.94224876       8.26076489       1.49616860       0.01684819      -0.01540497      -0.01171738       1.00136760      -0.01968815      -0.70188233      -6.16475446 F F F
 C              2.71339759       7.58835486       4.74795342      -0.01380509       0.01965810      -0.02921356       0.90171439       0.37207790       0.94810289      -5.90085236 F F F
 C              0.71726999       3.49028341       0.84661383       0.01625101       0.01982221       0.00015418      -0.94069884      -2.22842219       1.85637730      -7.34348276 F F F
 C              5.63375868       6.59024963       2.04499356      -0.00071983      -0.00048023       0.02775158      -2.87482956      -0.60362011       0.05476029      -6.98750801 F F F
 C              5.78156674       0.46230716       3.04904485       0.00711923       0.00275455      -0.01532698      -0.59544393       2.59307668      -2.11630447      -5.11074847 F F F
 C              4.37654710       9.85576244       2.89480190       0.01830147       0.02149267       0.00737953       1.66567711       1.89138547       0.29525823      -6.25389835 F F F
 C              4.65989747       1.40327725       2.92649510      -0.02067024       0.01632263      -0.00481995       1.40834151      -1.63512916       0.09497013      -7.60222976 F F F
 C              2.22664826       6.61902348       3.95464767      -0.01697954      -0.00470725      -0.01291924       0.90613636      -0.79751409      -0.63568688      -6.33253658 F F F
 C              0.08886173       2.27736947       0.80765348      -0.01092402      -0.00235786      -0.00968626       0.21536525       2.13157185      -0.15457445      -6.91197559 F F F
 C              6.93307868       1.01811863       2.44251967      -0.01224632       0.00776651       0.02664672      -1.29285664       0.01918106       2.69543339      -7.70440062 F F F
 C              3.20018928       9.37225883       9.16769009      -0.00519263       0.01328523       0.01863887      -0.88583316       0.39255044       1.40144342      -7.05040784 F F F
 C              5.92745076       7.14600574       0.92991537       0.01456747       0.01754551      -0.01664581      -0.76795377       1.65006557      -0.53689668      -7.83798098 F F F
 C              3.22407086       7.79836738       1.24090463      -0.00147568      -0.00994532      -0.03420444       1.38824069       0.60054193      -0.58084489      -6.82557054 F F F
 C              2.28983254       6.11470184       2.55476191       0.00674257      -0.05472614       0.02135784      -1.38244679      -2.43550984       1.04794200      -7.28706659 F F F
 C              3.79656616       8.04052592       9.97343895      -0.00453079       0.00453657      -0.01196903      -0.28159835       2.33120147      -0.35589521      -7.55073058 F F F