      91
 Properties=species:S:1:pos:R:3:velocities:R:3:forces:R:3:local_energy:R:1:core_electron_be:R:1:fix_atoms:S:3 Lattice="7.3800000000        0.0000000000    0.0000000000   -2.4600000000    4.2608449866    0.0000000000    0.0000000000    0.0000000000   20.1000000000" temperature=8161.37165652 pressure=563469.88422950 time_step=1.0000 time=690.000000 energy=-565.220962 energy_soap=-650.30407672  energy_2b=96.66482442 energy_3b=0.03768837 energy_core_pot=0.00000000 energy_vdw=0.00000000 energy_exp=0.00000000 energy_xps=0.00000000 virial="184.52615454        -21.37876480    -26.58619443    -21.37876480    164.51494788    -22.01350597    -26.58619443    -22.01350597    127.92237618" stress="-0.29195087           0.03382474      0.04206375      0.03382474     -0.26028984      0.03482900      0.04206375      0.03482900     -0.20239434" volume=632.045224 step=690
 C              1.17905504       1.58796996      18.69689578       0.00543716      -0.01048668      -0.01584511      -1.74554796      -1.24527622       1.03162989      -7.15463797     285.62601737 F F F
 C             -1.46264676       3.32693481      19.87401767      -0.02301610       0.01668897      -0.00240742       1.44705946       1.23287983      -4.94330558      -6.20768965     288.28910274 F F F
 C              5.78838069       0.14119814       4.42052197      -0.03424592       0.00739962      -0.01421410      -4.20554654      -0.23423661       0.13752723      -7.93147065     287.39536379 F F F
 C              7.05589752       0.15532460       5.12506511      -0.00351224       0.03073438       0.04389476      -5.19703890       6.94952173       3.25245270      -6.97279831     285.58410531 F F F
 C              2.98387074       1.80426035      18.02826193       0.01456594       0.01095543       0.00547034      -1.68538807       2.79968042      -1.60414086      -6.29213630     287.11879944 F F F
 C              3.24902763       3.30883608      18.65779190      -0.02583619      -0.00397707      -0.01348113      -3.91721359     -15.32768688       2.61548456      -8.19167136     285.38977634 F F F
 C              6.38992118       1.48228882       1.67498626       0.04196565       0.03567828       0.02520597       2.44192107      -0.63178658      -3.43045943      -6.42988155     287.44451684 F F F
 C              5.77573167       2.55660349       1.11686828       0.02805985       0.00113170      -0.03542337       0.78181871       5.22620072      -0.39550842      -7.57576340     288.01655473 F F F
 C              3.46629372       3.19489067       3.96055847       0.00850332      -0.01615700       0.00580368      -4.24819169      -2.70171648      -1.15933612      -7.25974972     285.14946890 F F F
 C              0.08208650       0.92024570       0.94152287       0.01117108       0.01282515       0.04767905       6.10806156      -3.02559994      -2.99809211      -7.82142622     286.21106651 F F F
 C              4.00861837       0.92835628       7.76220925       0.02588095      -0.01022061       0.04933400     -33.03875156      -5.95744109      22.53574287      -3.78809971     287.35845704 F F F
 C              2.00069580       3.52325365       0.84071045      -0.02964928      -0.00439918      -0.03190716       1.82090335       0.48899284      -4.55769530      -7.51441448     285.61907248 F F F
 C              1.52089744       1.35220464      16.89965709      -0.00367716       0.03592476       0.00934480       7.04439930       0.34053916      -0.00891200      -6.37280973     285.79695686 F F F
 C              0.36029029       0.33262085      19.54082275      -0.03073055       0.01971980      -0.01975397       1.93632159       5.44904377       2.55348289      -7.57337084     286.85383807 F F F
 C              1.72982227       1.08097015       3.67738047       0.03326569       0.02782202      -0.02330665      -1.78162489      -7.24807284       0.05147622      -6.15379897     287.40515992 F F F
 C              4.19505898       0.51970216       4.09011482      -0.03577753      -0.03598368       0.00712701      -0.93950609       0.10756364       8.95828975      -7.75978855     286.63156929 F F F
 C              1.68582199       2.44739226       2.97994715       0.03253064      -0.02109574       0.04152638       2.58198336       0.52553174      -2.16386008      -6.49530943     286.37118495 F F F
 C              3.49177816       4.06323345       1.26820803      -0.01234997       0.02588527       0.02603080      -5.87845486      -0.60929995       1.43534174      -6.96892712     288.08744205 F F F
 C              1.67090909       0.59112897       1.56256540      -0.01547094      -0.00236728      -0.03273797      -4.85197358       0.76442123      -2.33505885      -6.81778652     285.84102877 F F F
 C             -0.46338527       3.43319353       1.52741136      -0.03452645      -0.01880531       0.01753930       0.79713224       5.08128336       1.23403725      -7.95156187     286.37482363 F F F
 C              3.07787254       1.83052013       2.25121871       0.00557201       0.01669561       0.03329957      -7.07641469       4.24735320      -4.27790056      -5.44577518     285.78029842 F F F
 C              2.03697718       2.40736769      19.52276681       0.00295858      -0.01149458      -0.03428101       1.76848939       5.87521744       3.54156975      -7.24761222     286.23915040 F F F
 C              3.71619746       0.91596783       2.94240540       0.01622751       0.03757852      -0.03849404       5.17098727      -6.58219336      -6.76410848      -7.04551643     286.38236711 F F F
 C              1.03403880       3.78476821       1.71029188       0.04220728       0.01775918      -0.02518103      -0.51361929      -4.07695234       3.91771710      -6.93718418     285.21837037 F F F
 C              1.09131798       1.96601817       4.39469343      -0.04051694      -0.01666222      -0.00594876      -0.85825844      12.24905023       4.08925202      -6.08747647     288.15715634 F F F
 C              0.23889508       3.73642468      10.88236089       0.00983163      -0.00504689       0.01140209      -1.65062220      -3.08814498       5.65398085      -6.60227651     285.43062569 F F F
 C              2.50903234       0.72157456      12.93883831      -0.01404306       0.04663608       0.01367586      -8.34588677       2.05480715       3.32493158      -4.96384657     289.47527759 F F F
 C              4.09833009       3.84240070      16.01365382       0.01705172      -0.03244711      -0.02171932       0.53745219       2.15191496      -0.13272162      -5.95047158     288.50741063 F F F
 C              2.63523214       0.54223326       4.95916991       0.04606462       0.02083442      -0.00084270       4.62154260       2.50559210      -2.28206325      -6.79811622     287.12066757 F F F
 C              0.73388913       0.45283435      12.43175771       0.01354544      -0.06004123       0.03315949       5.94671173       1.07377863       1.16907586      -7.24019054     285.22506890 F F F
 C              1.68124598       1.27258003       9.12292761       0.02260799      -0.01077295      -0.01249584      -1.50009833       0.57424196      -4.05327682      -6.85954029     287.58210138 F F F
 C              3.69687933       3.48696392       9.73270215      -0.00740019       0.01524265      -0.03604345      -0.89429533       5.22268791      -3.88469843      -5.05113959     289.37029753 F F F
 C              4.48254538       2.33504979       3.68732582      -0.00850481       0.00062811       0.00601356       0.63862890      -3.95016035       3.39921954      -6.88340192     287.65959301 F F F
 C             -0.55389153       3.97575909       5.69312704       0.01382970      -0.02676419       0.01311865      -0.66576998      -3.60106193       4.80122566      -5.88996899     288.81479423 F F F
 C              0.86591178       1.81852723      10.49347923      -0.00756153       0.00622503      -0.03907226      -0.47749654       3.48306294      -2.39473517      -6.89733230     286.07103281 F F F
 C             -0.08893161       0.30117854       6.66229774      -0.00536224      -0.02758250       0.02147503      -5.46044839       3.34270039      -3.04015623      -7.30060091     287.40927198 F F F
 C              2.31900484       1.61492570      10.18420808      -0.04670454       0.01606910       0.00541176       0.45455983       1.86199439       5.73758309      -5.78371458     286.64066092 F F F
 C              2.12064336       2.48005950       5.59302425      -0.02856199      -0.01017364      -0.03219359       3.81456615      -0.94422705       4.03146900      -7.16147036     286.84642974 F F F
 C              4.49756934       2.19719074      11.49331287       0.00578125      -0.00886831       0.01786585     -17.06354322       3.37614460      -2.93537593      -3.91988479     288.27019947 F F F
 C             -0.79197001       2.71129658       7.95618757      -0.01957283       0.00317828       0.02201758      -0.82012066       5.08279528      -4.35220321      -3.29840521     291.11987918 F F F
 C              3.98997166       3.75098721       7.43954155      -0.00648996      -0.02415185      -0.01735235       2.47924884      -3.62956729       1.22135582      -7.30957205     287.81028227 F F F
 C              2.73105016       2.80092917       6.89815597      -0.01323684       0.00395726       0.02325099       0.27352782       0.94739256      -3.87001986      -6.79339966     286.82126082 F F F
 C              6.41388751       1.30021704       7.47438991      -0.03174154       0.01542838      -0.00922284       3.71209412      -0.49642839       4.59073692      -7.92531961     288.92109915 F F F
 C              1.06134700       4.14816502       9.97753305       0.00408761       0.02138023       0.00632825       7.22508432       0.52203178      -2.92115117      -7.63423308     285.72123145 F F F
 C              3.14926453       0.71712363       8.92539365       0.03824222      -0.02304942       0.01236481      -1.78967545       4.11784844      -2.39190664      -8.72897592     286.92230978 F F F
 C              5.18755430       3.32836038       5.33765647       0.00041483      -0.01312114      -0.02745021      10.81187293      -5.50584666       3.53796561      -6.51942472     287.30040792 F F F
 C              2.87022591       3.52875571      14.09078879      -0.00326115       0.02727477       0.04688848      -1.54549378       4.33614873      -1.17306452      -6.21402147     288.44212472 F F F
 C              6.28525052       0.94781265       9.32872171       0.00917977       0.03950030      -0.01072612      -0.81960455      -1.23216849       0.10355217      -6.85043761     287.81600833 F F F
 C              5.63236128       1.76552744      11.73024108       0.01413116       0.00776085       0.00756741      10.41071275      -2.62746901       7.11938623      -5.49908380     288.80228816 F F F
 C              2.61227736       3.83466971      16.67427542      -0.00582534      -0.01109515       0.04823959      -3.56959855       3.67891731      -2.08720544      -6.94674135     286.90133720 F F F
 C              0.08375309       0.78617460      13.58960146      -0.03386224       0.00153433      -0.00323727      -5.44904830      -2.76102564       3.62573528      -9.14949941     287.90443647 F F F
 C              5.64714326       2.58631745      17.27717810       0.03654670       0.02175875       0.04112471      -3.55474351       2.10979265       1.00489228      -2.35082379     290.21250801 F F F
 C              2.54042519       1.57179656      15.88012403       0.00396463       0.01919135      -0.00380319      -2.16932860      -0.05280768       2.15386621      -7.92637580     286.24156803 F F F
 C              2.26370915       3.54574526       9.09900974      -0.00953455      -0.01665150       0.00973615      -3.19719469      -0.67663261       1.19751229      -6.63346745     286.96458951 F F F
 C              0.24821245       3.23557855      16.86222044       0.00204745       0.00223182      -0.00988564       5.18285003       5.43584783      -3.97878471      -7.06009541     285.89127764 F F F
 C              3.48306812       1.03886864      19.11674538       0.00866730       0.00290591      -0.01352663      -4.69886925      -2.25667220      -0.41987829      -5.69919698     285.68944215 F F F
 C              6.54351527       1.40240165      15.81685587      -0.03088760       0.01467546      -0.04592899      -4.61449600      -7.51799732       6.92981848      -7.10030202     285.48939425 F F F
 C              0.86020170       3.49045509      12.82962252      -0.01358636      -0.03899042       0.05762706       0.18754283       2.26695511      -0.30428790      -6.87196307     288.41760576 F F F
 C              5.84317045       0.23402634      18.36715294       0.01814419       0.00839792      -0.02990930       2.82782865      10.89776643      -0.73989561      -6.00518095     286.98867368 F F F
 C              0.14080468       2.34703058      17.88738947      -0.01633437      -0.02232138      -0.00020539       1.19760483      -4.82734154       5.41998159      -6.87833251     287.50065643 F F F
 C              3.63593425       1.88788448      15.16034135      -0.01277976       0.01190634      -0.03387297      -0.62484662      -2.28938912       2.43455864      -7.41550448     287.21684738 F F F
 C              0.43761424       2.99446483      15.44947946       0.01395338       0.00735539       0.01603219      -2.75729184      -1.35098660      -5.89096348      -8.18030684     286.10463842 F F F
 C             -0.66193400       1.26376608      17.46521153       0.00654645       0.00774423       0.01621015      -1.56579151      -2.05641080      -6.32884790      -7.90622107     288.00512381 F F F
 C              4.70511966       0.81523495      19.16692145       0.03065850       0.01353985       0.01314974       5.53182534      -1.97428413       1.71811230      -7.69061098     285.47349842 F F F
 C             -0.16732560       1.54802968      14.80214880       0.00073327      -0.00363724      -0.02792446       6.07815472       4.08293794      -3.70782303      -7.72487126     286.06589549 F F F
 C              6.18484269       0.85682092      10.76177838       0.00711405      -0.01454131      -0.01566707       0.59999431      -2.90187153       1.72767071      -8.30911671     287.82190458 F F F
 C              3.99485508       2.91070919       1.81397257       0.06027579       0.00079396       0.02127752       2.41684886      -0.77262172      -1.84597036      -7.57276167     287.08707438 F F F
 C              3.50136369       0.07114044      17.33654228      -0.01797245       0.04616679       0.02717562       3.05325372      -3.72505572      -2.55028326      -7.28335242     285.32467624 F F F
 C              0.25966421       1.13682604      11.41946472       0.01103009      -0.01549484      -0.00307069      -1.13631038      -5.06068349       1.67433731      -8.09874655     284.72120797 F F F
 C              4.38548527       0.50373406      15.20965678      -0.03103338       0.02760432       0.02554706       3.24255627      -2.23004127      -0.05240134      -6.09813135     285.87874959 F F F
 C              4.25966994       3.63307065      13.87290699       0.03826627      -0.02664751       0.00833345       2.79172629       3.60760337       0.96193469      -7.13927584     287.89938305 F F F
 C              0.28797082       3.65394881      14.13176575      -0.03001389       0.02137732       0.01205414      -0.59314954      -1.22464392       2.39484970      -7.52356341     287.08047015 F F F
 O              5.28872453       3.22774781      14.52512434       0.02617485      -0.03885562      -0.02295680      -2.83815330      -0.44228356       0.48580152      -2.27400916     531.00093053 F F F
 O              4.98984821       3.31241175       8.45161822       0.00573175      -0.01389617      -0.01238477      -0.17069362      -0.19461714      -2.16563139      -5.16738028     531.13230667 F F F
 O              4.86701695       1.09726806       7.20016667       0.01016553      -0.01614796       0.02304875      27.93184529       6.23126247     -24.23179284      -4.39111689     532.25299934 F F F
 O              4.26551868       2.37882533      10.20498390      -0.00187281      -0.00696043      -0.01000252       4.78369829       0.88770897      -4.11292485      -7.12932092     533.09567062 F F F
 O              5.46916442       2.10128579       4.75459687      -0.00594290      -0.01975049       0.01249883      -3.58654592       3.18169915      -2.23249318      -5.56618444     532.35632445 F F F
 O              5.83493967       2.12117399      13.01569257       0.00042448      -0.01340447       0.01028927       1.91791729      -4.33432409      -4.69523478      -5.12353642     530.75605829 F F F
 O              3.32467999       2.39762962      11.91444274       0.00004628       0.02277298       0.00181562       0.21254996      -1.95476744       4.79338057      -6.99193288     531.43355472 F F F
 O              4.19666447       2.80321927       0.37780646      -0.02288111       0.03873619       0.01505864       1.10096827      -2.52971409      -0.94511223       0.83929219     532.27292128 F F F
 O              2.07982508       4.14992274      12.84488864       0.00339014       0.00778748      -0.04033099       3.18275233      -3.62570648       1.77292474      -5.37514601     531.48183036 F F F
 O             -2.04967436       3.65704353      16.67058059       0.02109325       0.02955603      -0.00178382       0.41187940      -0.81555020       2.38629522      -6.83474551     533.04696752 F F F
 O              2.05194178       1.64131529      13.95534814      -0.01879117       0.00146230      -0.03539704       3.60206470      -1.16353260      -4.89129499      -2.69579464     531.08270411 F F F
 O             -0.39243622       4.04365950       7.23781566      -0.00779301      -0.01869718       0.00276299      -2.15904666      -6.62354758      -4.10047760      -6.65227997     531.35727301 F F F
 O              4.89131765       1.66488746      17.32749782      -0.00362414      -0.01693459       0.00236334      -6.51618954       0.59743716      -1.72690272      -0.45089417     532.26297147 F F F
 O             -1.17533124       2.85902212      18.56471465       0.00372309      -0.01694157       0.00276309      -0.53528298       2.16082535       6.00597484      -4.41363156     533.53088332 F F F
 O              5.70656974       0.77473186       2.45983091      -0.03746023      -0.01876674      -0.01811711       0.20632211      -0.58215819       3.41988232      -2.51054224     532.51344178 F F F
 O             -0.55285958       2.32142464      10.05529528       0.01216828      -0.00393430       0.00853268       0.48073686       3.57547406      -4.70711080      -0.76919065     532.11284664 F F F
 O              1.26359092       2.74963554       8.27545083      -0.00149900      -0.07681543      -0.03091695       5.42161696      -3.46685121      -0.13730760      -2.70611989     530.94488389 F F F
 O              0.78780140       0.08550642       3.14086277      -0.01392188       0.01743473      -0.00349560       1.66345294       0.84349165      -0.38305172      -2.85130937     530.87036125 F F F
 O              0.09070287       2.66997971       4.99024750       0.01773812       0.00436522      -0.02555321      -0.14390353      -1.42128629       0.15341162      -4.52119280     531.78156972 F F F
