      65
 Properties=species:S:1:pos:R:3:velocities:R:3:forces:R:3:local_energy:R:1:core_electron_be:R:1:fix_atoms:S:3 Lattice="9.8400000000        0.0000000000    0.0000000000   -3.6900000000    6.3912674799    0.0000000000    0.0000000000    0.0000000000    6.7000000000" temperature=8152.20492368 pressure=707470.40728618 time_step=1.0000 time=120.000000 energy=-417.871175 energy_soap=-543.91403187  energy_2b=133.74670826 energy_3b=0.04241450 energy_core_pot=0.00000000 energy_vdw=0.00000000 energy_exp=0.00000000 energy_xps=0.00000000 virial="127.62129372        -13.53129510     21.15898646    -13.53129510    113.39482052    -10.97470957     21.15898646    -10.97470957    182.28569042" stress="-0.30287697           0.03211312     -0.05021552      0.03211312     -0.26911402      0.02604571     -0.05021552      0.02604571     -0.43260913" volume=421.363482 step=120
 C              0.22891524       0.68743408       0.45178560      -0.00051856      -0.04158829       0.01468831      -7.30634931       1.62237345      -3.39619255      -7.26209618     288.79843432 F F F
 C              0.27834275       2.51656600       0.07590953      -0.01310692      -0.00994284      -0.01637737      -5.58381082       0.75054397       2.82174614      -8.10615419     287.52830951 F F F
 C             -0.07334203       0.28324576       3.72903612      -0.02403110      -0.00487244      -0.00330595      -4.48147602       9.73003288       0.82080746      -7.85937318     288.26649323 F F F
 C             -2.68701821       6.00899466       3.64193632       0.00697922      -0.03886967       0.00134593      10.43404736       0.25931985      -3.28662399      -8.79598472     288.33200707 F F F
 C              2.38053388       0.91140383       0.59117812       0.01320527       0.02079317       0.00544387       1.01857627      -1.54981011      -1.52053624      -8.26135265     288.58081903 F F F
 C              2.29617876       2.40831622       0.46309907       0.05410625       0.01185077       0.01633537       2.53865445      -1.78487359      -0.52657370      -8.38534887     289.19050236 F F F
 C              2.48437527       0.36152179       3.01446929      -0.00272819      -0.01567854       0.01309083      -0.88878899      -2.14786798       1.34880609      -8.49115054     287.57359825 F F F
 C              0.14077997       5.84367437       3.05587928      -0.03760695       0.01954394      -0.03673890      -8.11192217       8.29854539       0.14033365      -7.96080988     285.99766125 F F F
 C              4.78939215       1.25835263       6.27273243      -0.00788734      -0.03045238      -0.03215413      -2.07865974      -3.39339322       1.61375351      -6.71793882     286.94822631 F F F
 C              5.10470844       2.52620130       6.26580108       0.00739694      -0.01714299      -0.02724601      -2.72406271       3.83106874      -6.08024976      -8.60762405     287.33011285 F F F
 C              4.94583327       0.20213458       3.12685963       0.00045450      -0.01400392       0.01978682       3.27592695       3.40108965       3.57717998      -8.14774649     286.82055117 F F F
 C              2.03165342       5.74584139       3.94147951      -0.01664093      -0.05004386      -0.01310953       0.68721985       4.51820881       2.70222310      -5.65546993     288.77223760 F F F
 C              7.56094206       0.99163307       6.40108311       0.02489512       0.05174806       0.05481851       2.44141402       4.40086794       1.74387617      -8.86238368     287.45659259 F F F
 C              7.47771150       2.56731903       0.19728381       0.00524539       0.00405670      -0.04470342       6.19657711      -6.42239596      -2.77597206      -7.57705311     288.33096047 F F F
 C              7.54434157       1.03070440       4.92864200       0.00243873      -0.01406369      -0.01553266       2.84724082     -18.94821443       9.85033178      -6.96204904     286.50226162 F F F
 C              4.82957246       6.29651753       4.25669093       0.03064291      -0.03479758      -0.01509508      -2.88387926      -0.39224162      -0.20677466      -8.50102696     287.03187494 F F F
 C             -1.03975470       3.11530974       6.53256520       0.00599130       0.01303259       0.02300624       0.98696754      -1.70583145      -0.46156977      -6.76023856     289.10283645 F F F
 C             -1.87720996       4.36989768       4.77964955       0.04441258      -0.00179320      -0.01148023       8.60351188      -3.94815303       3.08193587      -6.00007555     289.65072593 F F F
 C             -1.12499831       2.59922728       2.38737273       0.00187820      -0.02035491      -0.01126459      -0.15328952      -6.84514163       4.10740503      -7.07376354     286.20289855 F F F
 C             -0.14908815       1.78740700       3.24818846       0.03375862       0.01173633      -0.01226210       5.95633088       3.02240924      -2.21410314      -8.63696594     288.30745931 F F F
 C              1.32260115       3.42827563       0.23851212       0.02126575      -0.00666892       0.04753421      -4.97085538      -1.37445325       0.02806778      -8.67589408     287.01197619 F F F
 C              1.34287587       4.68446556       0.76614993      -0.02288176       0.00677197       0.01948402       2.95795720       2.94239801      -3.52303842      -8.35512964     287.20383541 F F F
 C              1.43514182       2.56231717       3.18270796       0.01546527       0.01490079       0.00823091      -6.21113695      -2.00982564      -0.73462292      -8.62256253     287.39125414 F F F
 C              2.57390922       1.75990872       3.39666822      -0.03757121       0.00414177      -0.02209525       1.36951694       1.40834239      -2.85594877      -8.55585512     287.39717016 F F F
 C              2.54915069       2.38628177       5.60011657      -0.02477020       0.02280796      -0.03714006       6.60136308       3.41667452      -4.07721407      -6.50211979     287.56588426 F F F
 C              4.10207952       2.79726747       5.08570568      -0.03149353      -0.02717197       0.00451174      -1.08046082       1.16120319       2.15902084      -6.86865944     286.87013047 F F F
 C              3.85743475       2.65861990       2.82812688      -0.01262333       0.01726383      -0.01612347      -0.32916534      -2.83740259       2.24957202      -7.62964316     288.07472374 F F F
 C              5.05132018       1.87666899       2.90268224       0.00480366      -0.01120073       0.01534615       2.54112739      -1.59518002       5.89269883      -7.62402598     287.34044607 F F F
 C              6.19526824       3.43480496       6.48115390       0.02484850      -0.00291996      -0.00331694      -3.01840094     -12.22381374       5.56970334      -7.98086939     288.19058764 F F F
 C              6.39518997       4.59806168       6.00299939      -0.00891435       0.02304850      -0.00816381       3.96143698       6.63445508       4.89010904      -5.85007407     287.98191240 F F F
 C              6.26549003       2.38105617       4.03226486      -0.02612899       0.02523024      -0.02034897      -7.99385957       4.36581382      -6.92768697      -8.23644751     286.11736835 F F F
 C              7.48090043       1.88057118       4.13200790       0.02246695      -0.02132630      -0.03390141       2.90233685      11.21001159     -10.05936891      -6.64696687     285.05059078 F F F
 C             -2.29390185       5.27785379       6.65539813       0.03345780       0.00388669       0.00565946       1.63388577       2.39401462      -4.10485420      -6.26209226     289.36581183 F F F
 C              1.41827702       0.31666128       6.22820857       0.00554430       0.00617402      -0.00342732      -2.96197492       0.45368909       3.46086884      -7.81904413     289.77106576 F F F
 C             -2.23997051       4.68051583       3.60009538      -0.02287228       0.02630378       0.00114313      -4.12888163      -2.79888083      -6.51922491      -6.19253431     287.65685903 F F F
 C             -0.87791645       3.80150222       2.34616011      -0.01088387      -0.01053410      -0.04922362      -5.72885647       3.83251292       2.88353424      -8.13670092     285.01451103 F F F
 C              0.30529913       5.55774773       1.18566446       0.00901038      -0.00646483       0.01256668      -0.71028223       1.93680628      -5.04502668      -8.52094510     287.37678471 F F F
 C              3.84762423       0.59074927       0.63536246      -0.01462987       0.03765889       0.02466011      -0.36997074      -3.69450436      -1.74453177      -8.22907152     287.76985545 F F F
 C              0.21370206       4.66515387       2.38186314       0.03302766      -0.00941862       0.05080477      -2.36976627      -2.23816923       2.12763779      -4.81598575     285.35025805 F F F
 C              1.39775401       3.97421396       2.78108516       0.02323698      -0.04256905       0.00090190       3.23157107      -6.24645813       1.42383362      -8.85963795     285.42652899 F F F
 C              2.65183289       5.35382137       0.73249365       0.01858051       0.02922805      -0.01697176      -4.69861411      -2.01740118      -2.05391941      -6.06276194     289.11385462 F F F
 C              6.18081074       0.14117246       1.46013084      -0.00602009      -0.04943652       0.02841237       7.36822604       1.43764210       4.02089371      -4.96095631     288.68252285 F F F
 C              2.63841215       4.52531735       3.16744544      -0.04885339      -0.01861722      -0.02328156       2.46810294       3.76802082       4.61633795      -8.56279125     286.84588361 F F F
 C              4.02274633       4.03826551       3.74232108      -0.02106612       0.01772518      -0.00068560      -5.28098624      -2.69860337      -4.57029003      -8.85390459     287.96205752 F F F
 C              5.29462612       5.48756663       0.85230625       0.00643212       0.00440170       0.00010990      -1.32294495      -3.55770311       1.11845081      -4.71583822     289.13944795 F F F
 C              8.61959571       0.24681305       0.29824760       0.02054205       0.00370576       0.06039511       2.87281476       5.15242307      -0.29994460      -8.73317995     288.44407982 F F F
 C              4.87329137       5.23378942       3.21902760       0.01667616       0.01964782      -0.00026439      -3.10802836      -1.86214030       0.00373702      -6.39377871     288.11885758 F F F
 C              6.44355179       3.82243165       4.35847065       0.00658444       0.02344614      -0.01084412       1.99107961       1.61872437      -5.52319694      -7.08751022     287.93833765 F F F
 O             -1.39801195       2.90347620       4.92521321       0.02608318      -0.01457571      -0.01595758       2.72186061       5.47676134       1.77779352      -3.46806872     532.09686413 F F F
 O              5.25713157       0.97347166       1.41752585      -0.02526136      -0.00071629       0.02173250      -1.94699759       5.03960297      -0.59732832      -2.92208348     533.24419611 F F F
 O             -1.03560281       5.40305283       5.07195152      -0.01148172       0.00261864       0.00228362       0.52367796      -1.84514996      -3.56560775      -3.16170052     530.69656290 F F F
 O              6.02802331       5.18963654       2.39852958       0.02321223      -0.03074572      -0.01068977      -5.28469628      -1.54136368      -5.02869775      -5.04277872     531.64137459 F F F
 O              0.14809207       1.48599108       1.47934088      -0.01875576      -0.02439573      -0.00677395       0.05347238       4.08445933      -3.48676917      -0.98555333     531.97762562 F F F
 O              5.96350302       0.40233679       4.94532103      -0.03265905       0.02205505       0.00240854      -0.12960379      -5.30610148      -2.82369458      -3.80317188     531.23497523 F F F
 O              7.34165914       0.59988751       1.80802345      -0.00024611       0.01591149       0.05198240      -0.33275364       0.62738562       2.16289988      -5.85662479     531.22099566 F F F
 O              2.10027658       3.34351696       4.88170387      -0.02603378       0.01892588       0.02690318      -2.40999892      -2.23116268       3.04462824      -2.00436402     531.04014463 F F F
 O              3.17892460       5.29757610       6.33731063       0.01557361       0.00289071       0.02197547      -0.22484054      -0.43937873      -2.21950689      -5.38470745     530.68191171 F F F
 O              1.59091141       0.28127336       1.92719497      -0.02650449      -0.02088001      -0.00869963       8.31170609      -2.03857443      -0.52768635      -2.29946798     531.67755921 F F F
 O              1.13506867       4.92467066       5.43623010       0.02720640       0.00126309       0.02673944      -1.30488875       0.40980182      -0.95983129      -2.13508887     529.10170944 F F F
 O              4.53234747       4.55900661       0.47549167       0.01538532       0.01007550      -0.02159015       4.05135017      -0.53760848       4.58571765      -5.11726704     531.02246317 F F F
 O             -1.06917791       4.73650792       0.19570939      -0.01638538      -0.00286963       0.00605994      -1.51206694      -3.70750215       4.04276358      -4.85839134     531.83837782 F F F
 O              6.75904971       3.28224543       1.06959038       0.02697010       0.02264573      -0.02920304      -1.22746301      -0.40752003       6.90895980      -4.28200876     532.30580987 F F F
 O              0.87718015       1.19616038       4.92422239      -0.00057736       0.02325056      -0.00802789       2.83070195      -1.23004974       5.12875444      -1.45478707     530.73636685 F F F
 O              5.65267587       4.79108335       5.02266559      -0.03119697       0.02762245      -0.02702360      -6.96348345       0.54439269      -3.87763806      -1.29984055     533.21061825 F F F
 O              3.10499526       2.77300861       1.40914119      -0.02202955       0.00763340       0.01052908       6.45456144       3.82727456       1.68984288      -3.41568347     531.85023290 F F F
