50
Lattice="9.9905032156 0.0 0.0 0.0 9.9905032156 0.0 0.0 0.0 9.9905032156" Properties=species:S:1:pos:R:3:local_energy:R:1:hirshfeld_v:R:1:forces:R:3 energy_soap=-255.0909872 energy_2b=7.90332986 energy_3b=-1.76433955 energy_core_pot=0.0 energy_vdw=0.0 energy_exp=0.0 energy_xps=0.0 virial="-4.73280568 5.1011636 -9.15392573 5.1011636 -4.53155176 23.33368549 -9.15392573 23.33368549 -51.40049648" volume=997.153669 config_type=iter_2 energy=-248.951997 stress="0.00474632 -0.00511572 0.00918006 -0.00511572 0.00454449 -0.02340029 0.00918006 -0.02340029 0.05154722" pbc="T T T"
H        0.76958095       3.33406086       6.21401382      -3.15859484       0.64766321       0.07011973       3.28041061      -0.06799799
H        6.65194132       2.93927964       8.36247939      -4.31793504       0.67157843      -0.01626420       0.62359304      -1.50826977
H        8.78239562       0.41084747       1.79312149      -4.10777020       0.67640828      -0.99794529       2.41513143      -1.48703365
H        0.44800048       8.29854385       2.61592551      -3.21463870       0.72609754      -1.24863178       1.81934216       0.87246989
H        5.72303969       3.70487088       5.76794891      -3.16922676       0.76453391       0.19330131      -0.76419861       2.59731028
H        9.00742247       5.37683886       4.76773293      -4.28263317       0.72206360       0.99362393       0.59885944       0.89838149
H        3.60365421       0.49695706       0.95163413      -4.02348586       0.58850871      -0.71849239       4.88877781       0.36159323
H        0.82801319       2.66740235       6.25661304      -3.06830178       0.66694007       0.89700603      -1.65593518       0.18712119
H        3.15690219       6.24711692       2.59105174      -3.26874390       0.64529274      -0.78887225      -0.93409327       1.15224086
H        6.51936315       3.02649477       3.49321441      -3.06810749       0.80758928       0.75742347       0.10333218       1.15049660
H        9.41199337       1.33145106       8.77757340      -3.13492423       0.71587707       0.46211125       2.62390958       1.66413975
H        1.55293854       6.49059823       7.87961449      -2.29719986       0.91248072       2.49708935       1.29240036      -2.71974438
H        1.98724523       1.13538851       3.03472864      -1.94849255       0.71975828       0.53335004       1.19512824       0.51372950
H        8.98844592       8.60057843       4.08657659      -3.82173342       0.69960513       0.16522215       0.53408985      -3.41077046
H        1.35822795       9.72209376       5.77070116      -3.12415069       0.75228002       0.22933428      -0.35454208      -1.34179341
H        1.35312115       0.15209831       3.67130886      -2.31636962       0.87506891      -0.00654105      -0.01900713      -0.36365922
H        2.72176118       5.82567709       3.11817293      -2.99996247       0.59795107       0.78909078       0.72378694      -0.91202884
H        0.88974684       0.48351919       7.50338849      -2.86834842       0.72744584      -0.75816685      -0.54929001      -3.11904920
H        2.31458822       6.89338942       7.05414229      -2.17034646       0.86497228      -2.43076050      -1.47895205       2.28244510
H        2.29476724       1.96301666       3.19370698      -3.08876817       0.65096664      -0.31768544      -1.14718865      -0.43926862
H        1.78456906       7.76574419       9.17958527      -1.93488467       0.81024468      -0.33166082       0.36434045      -0.45948759
H        9.38337863       2.09361789       9.13629897      -3.11816332       0.68098320      -0.03611063      -2.06864095      -0.96587647
H        2.29278485       7.75178870       0.65118721      -3.47175960       0.73601475      -1.23921518      -1.15843885       0.79869651
H        5.27929458       2.28052086       5.27896252      -3.20044829       0.69369023       3.05110244      -1.08139841       2.94635033
H        0.00048460       1.42610087       4.52459459      -3.02979006       0.74079874      -2.26003678       0.62944467       2.16400508
C        9.42231315       1.56125302       5.78613581      -6.44193201       0.86760178       3.22836604      -4.50995837      -1.67933348
C        8.85086441       7.58035431       2.04946162      -5.91176136       0.86764918      -2.85906605      -5.42388618       0.13475672
C        7.17471405       0.30422933       8.71570131      -7.03494250       0.85086300      -0.74823786      -3.62765463       0.91075732
C        7.46905600       1.10818319       7.74004851      -7.06189335       0.85667824       0.95516165       1.94797105      -2.25451570
C        4.46340244       8.44144107       0.85816806      -6.22035170       0.81886239       5.67948613      -2.78185796       1.55537443
C        9.13432934       8.61497394       2.80999651      -7.30117705       0.83890431       1.25534695       1.09306218       1.74826624
C        6.40915516       6.90056340       0.62820640      -7.23062689       0.87196650       0.36831539       0.66369450       0.38260182
C        6.38403774       2.66408871       5.97204634      -7.04904430       0.87282525      -3.82279303       3.99906530      -1.94672719
C        7.68045241       6.86769941       1.48737376      -7.57184577       0.87768871       1.93215332      -0.38116709       1.34021115
C        6.13789130       4.89639129       2.30931405      -7.05071433       0.87705286       0.33006406       0.93459238       1.61995834
C        6.58895901       4.54246642       3.65676208      -6.97356880       0.88356891       2.41806322       0.98553503      -1.47306473
C        6.08891724       5.78108780       1.31092503      -6.96951891       0.86074420      -1.59171272      -2.47971861       1.80132263
C        3.77281720       9.51792615       0.83208522      -7.32191028       0.73423215      -3.81283398       1.67895965       0.30587749
C        3.13221089       8.36287623       0.76979331      -7.08812585       0.74293648      -2.57463499       0.11858994      -1.04444474
C        8.26084719       9.49016684       1.67895347      -6.68111192       0.83280703       0.89136950      -5.12992531       3.52315946
C        5.86565676       8.49597444       0.39096951      -8.00360139       0.85818845       3.45655719      -6.00046161      -2.86501152
C        8.29542452       5.39250913       3.98106257      -6.18140975       0.86022844      -4.85692673       2.76842147      -9.03162103
C        7.09488278       3.55796036       4.73504860      -6.37403573       0.88070447       2.20714775      -1.70125051      -0.09531741
C        7.03518240       2.55029017       7.36745647      -7.28818444       0.83565699      -0.26184076      -3.98877727      -2.17407811
C        6.89371994       9.06953765       9.48152226      -6.98782915       0.87057842      -0.65526698       3.84353647       0.36627427
C        8.36054599       1.71839115       6.63917640      -6.91643958       0.85934335      -1.76063263      -0.54780303       2.11380406
C        0.55561783       0.38729294       5.94686607      -5.61870695       0.88478212      -2.34476454       3.54847656       5.02568386
C        7.25149081       8.69580970       1.09701795      -7.25651016       0.86952547       2.84161662       4.75920222      -0.03613353
C        8.32646418       3.36802760       5.41614818      -5.65549159       0.91821553      -2.07526066      -0.27090622      -1.35987201
C        8.16493686       6.05512134       2.69414237      -6.55648357       0.86343209       2.31193150       0.62139845       2.33807147
50
Lattice="9.9905032156 0.0 0.0 0.0 9.9905032156 0.0 0.0 0.0 9.9905032156" Properties=species:S:1:pos:R:3:local_energy:R:1:hirshfeld_v:R:1:forces:R:3 energy_soap=-259.91183485 energy_2b=13.87068558 energy_3b=-0.46311376 energy_core_pot=0.0 energy_vdw=0.0 energy_exp=0.0 energy_xps=0.0 virial="-13.32016022 1.07319298 -2.06824925 1.07319298 -0.49986039 -0.94440385 -2.06824925 -0.94440385 -2.94678101" volume=997.153669 config_type=iter_2 energy=-246.504263 stress="0.01335818 -0.00107626 0.00207415 -0.00107626 0.00050129 0.0009471 0.00207415 0.0009471 0.00295519" pbc="T T T"
H        1.79590190       2.36772479       7.03279598      -2.94166509       0.67963101      -0.86798131       0.46112696      -1.74863385
H        7.29591599       3.86972668       7.81877496      -2.65177369       0.71562812       0.18337745      -1.08715318      -0.72093189
H        8.00471158       0.77774831       1.88314029      -3.90322385       0.69267322       1.05791111       1.13070282       0.36669647
H        6.03063159       3.30222171       8.09783411      -2.92488449       0.74012862       0.53083469      -1.85230003      -0.71572082
H        4.86939886       3.09016876       5.98190347      -3.98394597       0.66977041      -0.14198355       0.54863128      -0.11273091
H        9.28947631       4.99255377       4.26069358      -4.11188719       0.71209742      -3.25116960      -1.13539876      -0.87427572
H        3.31070792       0.39520142       0.78623146      -3.78529439       0.67145816      -0.52417190       3.50488800      -0.17841139
H        1.23210852       2.46322504       6.43061597      -3.28755267       0.69200969       1.16858624      -0.36180103       0.84441305
H        2.84190716       7.11785221       2.39352054      -2.67201405       0.63537916      -2.93462754       0.77449780       1.91047794
H        6.77545852       1.72651374       4.03870064      -3.05024157       0.64731278       0.31420077       2.80800244       0.99623274
H        0.34804551       3.21235460       9.04641876      -2.94853730       0.59768249      -0.27574681      -0.29658870       0.15396859
H        3.55832965       6.83510736       8.28954015      -2.88391825       0.82776320      -2.34513885      -4.06535363      -0.98260819
H        2.26510826       0.75075148       2.63600933      -2.89386630       0.64672422       0.48284059       1.12206072       0.21613840
H        0.19817681       9.52887080       2.53057688      -2.98631059       0.75621997      -2.43845645      -1.86227080       1.10576259
H        0.78439431       0.43782236       5.12072963      -2.81585204       0.76838136      -0.51521202      -0.63186347       1.57646535
H        9.78230307       0.15378031       4.17822999      -2.52373301       0.76128969       0.16155211      -0.21549392       0.26003567
H        3.38890885       6.88626031       2.17797492      -3.38848785       0.63697404       2.98082680      -2.04845309      -0.42682753
H        1.90401817       0.10565557       6.63340359      -2.89697130       0.71575534      -2.35411591       0.21446909       0.21866883
H        3.07957276       5.95583688       8.02199762      -2.60576479       0.79425532       2.22508667       4.09489365       1.15377982
H        2.45391810       1.50022301       2.83285507      -3.07354412       0.59270348      -0.26563648      -0.84737997      -0.05832417
H        0.40319520       8.31350096       1.56782651      -2.70905576       0.81583458       1.72396144      -0.65081012      -1.39748191
H        0.18913440       2.59032632       8.59128877      -3.02370092       0.66899612      -0.37783025       0.62079063       0.95913698
H        1.21955156       8.36831861       1.12950800      -3.30564059       0.76577305       0.17427520      -0.12161809      -0.71463555
H        6.53576712       0.31360189       0.63935323      -3.43178773       0.77495233      -0.05979339      -0.87960722       0.14768580
H        9.05790453       1.84260760       4.33443961      -3.54711093       0.74298561       0.61260697      -0.47062915       2.97882995
C        9.24020828       1.48416996       5.51812694      -6.26710753       0.84166392       1.18051370       0.71755154      -3.10001675
C        8.58347000       7.54147853       2.42863923      -6.32061647       0.85079731      -6.09262130      -8.59211966       1.64719461
C        7.43394681       0.34538123       8.64165355      -6.58580207       0.87703141      -3.16321192      -1.83597039       0.62611032
C        7.55623201       1.44553027       7.62115863      -7.96747381       0.86872620       0.88240462      -1.13728510      -1.66865305
C        4.71329121       8.23482457       0.41842986      -6.36201222       0.85817823      -4.98860215       2.97038177       1.27929879
C        9.30718412       8.52796125       2.44075359      -6.55803828       0.82814299       3.96639864      11.31994601      -1.61072495
C        6.25106910       6.77970346       0.79162444      -7.05506569       0.85528290       1.38952390       1.52198337      -1.93637839
C        5.93238967       3.11220352       6.09544976      -6.58921932       0.84194815       3.37271096      -2.42112618      -2.74617651
C        7.36463505       6.61212990       1.64085778      -7.06978448       0.86767844       3.12783103      -0.70513145      -0.29070269
C        6.59563103       5.05876416       2.66708744      -7.77073097       0.85520685      -2.90292665      -1.71719949       0.53025165
C        6.84295699       4.37984764       3.90976322      -7.32308141       0.84730714       1.73290658       2.83338286      -3.34889389
C        6.20915664       5.57111082       1.46334789      -5.72061286       0.84425511       0.38970970      -1.35813543       2.08692483
C        3.51455359       9.42385474       0.84088435      -6.83088508       0.81120757       3.26787766      -4.80961695      -0.73479225
C        3.21523198       8.17145165       0.76776241      -6.16796337       0.85766670       3.16127873       0.10839105      -1.49180483
C        8.15012800       9.74316451       1.67656661      -6.85276886       0.83688577      -0.38888961      -4.69650209       0.86617626
C        6.20341524       8.27710354       0.26042378      -7.12490274       0.88385963      -5.09001787      -4.71532801       0.69144016
C        8.21478730       5.08416101       3.60374303      -7.18177832       0.86347022       5.04605958       2.57972619       2.03008781
C        7.09045754       3.25815332       4.60937858      -6.19215144       0.86260225      -5.68503023      -4.19904228       0.71997943
C        6.69560266       2.54965446       7.03401183      -6.88746806       0.86616191      -1.63142334       3.87138989       4.85630708
C        6.76899536       9.28294529       9.41485546      -6.62815389       0.87308122       4.73244253       6.19751947      -2.71649092
C        8.57036313       1.41374717       6.61092494      -7.08795808       0.85514141      -1.83903025      -0.88542124       1.89578771
C        0.63117147       0.53405554       6.40633351      -5.15327756       0.91346134       2.68356318       0.44022354      -2.84656552
C        7.19976963       9.00597570       1.05314336      -7.04733400       0.86897943       0.79003990       6.47512775      -0.80879482
C        8.07774921       3.33041463       5.48974667      -6.15469560       0.93278915       2.32057551      -1.48155045       3.23818789
C        8.49262640       6.21348362       2.88491111      -7.25861650       0.84981314      -1.52627886       0.76546301      -2.12546222
50
Lattice="9.9905032156 0.0 0.0 0.0 9.9905032156 0.0 0.0 0.0 9.9905032156" Properties=species:S:1:pos:R:3:local_energy:R:1:hirshfeld_v:R:1:forces:R:3 energy_soap=-261.1933268 energy_2b=11.87617004 energy_3b=0.69062312 energy_core_pot=0.0 energy_vdw=0.0 energy_exp=0.0 energy_xps=0.0 virial="7.61498763 -1.88357522 -2.21201852 -1.88357522 -14.63297238 8.83511701 -2.21201852 8.83511701 -4.19716863" volume=997.153669 config_type=iter_2 energy=-248.626534 stress="-0.00763672 0.00188895 0.00221833 0.00188895 0.01467474 -0.00886034 0.00221833 -0.00886034 0.00420915" pbc="T T T"
H        1.96984016       2.58698530       6.41071481      -3.18313308       0.64713246       1.03681037      -0.71151838       1.26353435
H        9.33929047       4.62612025       7.20982821      -1.28843484       0.88815285      -0.03758068      -0.33910806       0.14573410
H        8.56803884       0.84511949       1.82702716      -3.75794208       0.70027431      -2.57704053      -0.43710306      -0.46318404
H        0.23912290       6.59567365       8.91673616      -1.30626365       0.86254510       0.23822884       0.28521826       0.21986181
H        4.63998722       3.44997065       5.70607663      -4.17151882       0.65755807       1.76862332      -0.55002837       1.59656685
H        9.33639061       4.06881773       3.32520654      -4.43073479       0.68953898       0.51609497      -0.08967480       0.50691721
H        3.54229177       0.11104797       0.31847644      -3.61524493       0.66420130      -0.56733698       1.03072507      -1.08087452
H        2.54712148       2.27205478       6.88501220      -3.12903608       0.63245467      -1.30096938       0.91747633      -0.95731663
H        3.06327539       7.06004339       2.86524234      -2.92873745       0.59435194      -0.75175028      -1.24892720       2.48683240
H        6.53665433       0.61385407       3.48856915      -1.40966545       0.88805502       0.70183870      -0.17292295       0.01254192
H        0.42238985       4.28648420       8.84253422      -2.54206211       0.60237321      -0.00171650       0.06015835      -0.41853822
H        4.58945698       6.28374613       9.25543047      -3.47406146       0.63279511       0.41252995       1.88071515      -1.36230251
H        2.79674476       0.00149018       1.98301346      -2.31646831       0.75765383      -0.37254953      -0.33369385       1.03565225
H        9.36701394       9.46535161       3.43690493      -3.06657024       0.63372859       0.64772098      -0.62227580      -1.64490354
H        1.43159862       0.35668404       6.01221010      -3.34696530       0.63302144       2.65439335      -0.06308927      -1.53872880
H        8.92608415       0.61460606       4.97154631      -3.75304580       0.69792792      -4.10831538      -6.04771147      -5.44755478
H        3.22944271       7.35298204       2.27692796      -3.36708020       0.64306913       0.67589068       0.65508482      -2.14334211
H        0.08714561       9.98662964       6.64246091      -3.30732865       0.71421906       1.04320240      -0.49414544       2.28583504
H        4.38927493       5.67025027       9.26228659      -2.74406347       0.64075118      -1.17793215      -3.50220367       0.11000712
H        2.34011911       0.32641340       2.71490426      -3.31980511       0.76305426      -0.11435197       0.36766137       0.61180195
H        1.16858953       7.86487504       0.27339262      -2.13431018       0.81050860      -0.45708839      -0.69051407      -0.42336978
H        1.01795898       4.60079725       9.21056429      -3.06313549       0.58600290      -0.11387597      -0.22336882      -0.08284531
H        1.94398887       9.11985026       0.55014756      -3.09425520       0.71385449      -2.42983131       0.31192986      -1.12623732
H        6.73416543       0.97973762       5.27009737      -2.83827216       0.61288854       0.00115684       0.08767842      -0.10417439
H        0.00095894       1.86334149       4.75534404      -3.81102706       0.69504566      -1.62991120       1.54968672      -0.61589371
C        9.41775066       1.21519195       5.47021047      -6.09287499       0.80091057       5.54606300       6.02233694      -0.00469914
C        8.45700487       7.84119047       2.56667767      -6.21037728       0.87786378       1.41851462      -3.40201548      -1.44273252
C        7.12175951       0.51994264       8.38869136      -7.41964175       0.83841114      -0.15183217      -2.80872384       4.83512317
C        7.50217354       1.52369054       7.61369771      -7.07705035       0.85831806      -0.30330076       1.00747318      -4.02961007
C        4.94436321       7.95313441       0.02728369      -6.66630835       0.85481563      -2.49404925      -0.82716058       3.07343481
C        9.18961097       9.01162104       1.94500789      -6.17467896       0.90765478      -0.58776714      -4.93824957       6.25003889
C        5.99224838       6.84821741       0.76854901      -6.01188518       0.85769893       1.21048803      -1.61007984       1.39326213
C        5.75051085       3.16827379       5.92502193      -7.32303288       0.83667963      -1.51496721      -2.52671601       0.60381986
C        7.67301260       6.77780205       1.95329925      -7.16497411       0.88596268       1.13561661      -0.46396027       1.07059830
C        6.54091718       4.80658913       2.89413766      -7.28792824       0.87805446      -2.77701332       0.18519923      -1.30936247
C        7.02197873       4.00057922       3.92024934      -7.34013460       0.84576457       2.34819060       3.97453442      -4.55994950
C        6.39986911       5.63288633       1.76174030      -7.22514036       0.87875228       1.00337953       2.75883482      -0.09977575
C        2.91245981       9.37736429       0.80680876      -7.79687956       0.82663926       4.47465433      -2.51363579      -0.24058583
C        3.77486953       8.02450137       0.63284403      -6.60673603       0.84837514      -2.29092742       3.23404404       0.11274687
C        8.07183922       9.73365760       1.74281023      -6.71073291       0.84116414       2.28813321       4.35244486      -0.84292432
C        6.29901788       8.11702977       0.17813788      -7.47483426       0.86585404       5.06493297       0.89847268       1.79836203
C        8.52547451       4.77305328       3.49539138      -6.72063131       0.84800819      -2.20951263       2.83455967      -0.27784331
C        6.69852431       3.22213223       4.96053751      -6.98078889       0.85222643       2.76337166      -0.54929023       2.61731221
C        6.60074764       2.31165587       6.79905931      -7.07805531       0.86997481       1.24247381       3.66745056      -2.53902597
C        6.91016978       9.66413935       9.36239664      -7.13552522       0.84813155       1.05114037       0.62027694       0.36291522
C        8.61333382       1.35515243       6.61868945      -6.66585605       0.85092707      -4.30666473       5.65230818       1.61619744
C        0.57258939       0.90478661       6.22175721      -6.57332900       0.81177563      -0.62494622      -4.08897089       2.95938122
C        7.26876686       9.35144542       0.75892112      -7.99084667       0.84703268      -5.50112916      -1.64421454      -5.28394368
C        7.99440275       2.77436871       5.98993346      -6.94124172       0.90490835      -1.19205850      -1.39265963       1.09624955
C        8.46603008       6.12685176       2.98682097      -6.55788776       0.87760617       0.35096961      -0.06230796      -0.02500849
50
Lattice="9.9905032156 0.0 0.0 0.0 9.9905032156 0.0 0.0 0.0 9.9905032156" Properties=species:S:1:pos:R:3:local_energy:R:1:hirshfeld_v:R:1:forces:R:3 energy_soap=-260.68443672 energy_2b=14.18034106 energy_3b=0.43122683 energy_core_pot=0.0 energy_vdw=0.0 energy_exp=0.0 energy_xps=0.0 virial="-10.46884715 12.12203003 2.40385388 12.12203003 -6.25860232 5.41953713 2.40385388 5.41953713 -19.00322838" volume=997.153669 config_type=iter_2 energy=-246.072869 stress="0.01049873 -0.01215663 -0.00241072 -0.01215663 0.00627647 -0.00543501 -0.00241072 -0.00543501 0.01905747" pbc="T T T"
H        2.96276838       2.28225780       7.18505754      -2.87928206       0.67238942      -1.32800175       1.68232252      -1.43670976
H        2.01505619       4.68389866       8.11478208      -1.75453862       0.89094615      -0.34313935       0.57478867       0.10676443
H        7.43033451       1.06623602       2.10646610      -4.18930598       0.69191999       0.21093106       0.60681724       0.09529528
H        8.52517093       7.25061625       8.28493005      -0.92253145       0.91859216       0.70528242      -0.07537572       0.32824671
H        4.60972682       3.61037280       6.44879040      -3.98416639       0.70529916       0.47938727      -0.50927675      -2.14487051
H        9.29688733       3.94474227       3.14654047      -4.35875762       0.66512733       2.21371890      -1.36658592      -0.11257611
H        2.08401601       9.91116258       0.46537711      -3.48078473       0.69908395       2.27056803      -2.94579177      -0.04433903
H        2.54123316       2.82783567       6.69385988      -2.90862891       0.66727918       1.04254043      -1.50446702       1.31734223
H        3.27072905       7.18539740       3.16703680      -2.92856694       0.63097424      -0.29497585      -1.06593511      -0.40088312
H        7.35005781       8.62723702       1.62663199      -2.75892193       0.75938695      -0.45344534      -2.32596425       2.08747111
H        1.32792398       6.23118879       8.58697286      -2.36568516       0.69817107      -2.90398461      -0.29707563       0.19360479
H        4.48602589       4.66347348       9.26382605      -2.93749569       0.62679144       1.28075719       0.01305724       0.73080479
H        2.21410242       9.47233741       2.43229477      -2.96062103       0.67265162      -0.22484925       0.24845132      -0.97685621
H        0.14967152       9.83651161       1.89562449      -3.50908548       0.74740317      -2.85991055      -1.61803345       1.40891760
H        1.67443676       0.35952744       5.76162913      -3.32428463       0.72465378       2.40960743      -1.03302438      -0.42288101
H        9.65257241       0.07586582       4.50717079      -3.71163138       0.74487006      -1.56119783       2.35105954       1.41174663
H        2.76736726       6.81389035       2.70141804      -3.07780672       0.62270400       0.62610590      -0.07749236       0.38789599
H        1.39303622       1.00615939       7.90478588      -2.47646221       0.73353200      -1.16750235      -0.64707554      -2.73871817
H        5.18330652       4.65506964       9.64148354      -3.41931450       0.64955427      -1.26915774      -0.06723722      -0.61228612
H        2.42166871       9.38479673       3.13315830      -3.18881311       0.62529014       0.08104418       0.57005715       1.13655044
H        1.24461310       8.66802020       8.47875814      -3.28795794       0.61064268      -0.81376798       6.44745925      -4.34688494
H        0.45489416       6.61958144       8.70529842      -2.56349217       0.75571249       1.90879927      -2.14186114      -0.62257218
H        1.32777177       8.18190124       8.85145525      -2.04273770       0.63234757       1.48119663      -4.60393550       4.69188609
H        5.57028160       9.62297880       6.84483123      -2.19970315       0.67286114       0.86243893       0.81958352       1.02006342
H        9.58999037       2.29783946       4.50489807      -3.42600432       0.68551849       0.63452951      -3.59037542       1.77826510
C        9.57349956       1.04523164       5.32796587      -7.18804604       0.87713038       3.35002036       0.13773815       3.00994143
C        8.50941407       7.95358144       2.17410956      -7.37511024       0.85486089       2.26237100       2.52331930       1.18387109
C        6.66119019       0.61592829       8.26298058      -6.10147188       0.84857691       0.77700324      -4.31916254       4.15403541
C        7.22118381       1.45035830       7.40467124      -7.57115868       0.86366516       0.89594336       2.48856461      -4.15786822
C        5.25092993       7.56913795       0.24070015      -7.57401001       0.85335211      -2.27016041       1.63569898       0.38033888
C        9.14585944       9.20491132       2.52301014      -6.07744568       0.87347901      -1.61737113      -0.79363066      -3.39607414
C        6.06428692       6.66173662       1.08090151      -6.97814699       0.84537749      -3.20461178       1.00378546      -1.00489550
C        5.46478112       2.95575440       5.97127706      -5.93170279       0.86315266       1.92956050       3.61461902       1.34864613
C        7.69205461       6.85496048       2.23292129      -7.36244582       0.85127382       8.58372120       0.41859504       5.29798878
C        6.60127992       4.67327439       2.59483100      -6.73274844       0.89109090      -1.17850678       0.24237535       2.17554489
C        7.23417819       3.91420265       3.74128822      -7.69911393       0.86709410      -3.22973507      -0.20257718       1.41253203
C        6.63746835       6.07363840       2.18060858      -6.55194220       0.85290561      -5.62329389      -1.84718454      -3.25872471
C        2.82490959       8.87985542       0.52523593      -6.53866005       0.79076890      -2.16693742       3.90619340      -0.58585102
C        3.94073936       8.38147943       0.36259656      -7.19791980       0.85373686       1.58093836      -3.36229203       1.00109560
C        7.72434570       0.13022883       1.60743889      -6.41265385       0.81913213       5.26676076       3.85086919       7.25891358
C        6.34425722       8.35739752       0.25739599      -7.31304836       0.84226448       1.00524033       0.50737876      -2.83844058
C        8.46832752       4.46041801       3.46759030      -6.70866550       0.83662087       2.06922272       1.59790854      -0.91141841
C        6.92230013       3.62707911       5.21173202      -7.23435984       0.88262895      -1.86698960      -3.13076840      -0.81996060
C        6.28008857       2.38210915       6.85678565      -7.17365516       0.85682985       2.09697544      -1.80825299      -1.63616749
C        6.94797673       9.87465122       9.31398400      -7.19118492       0.84547429      -0.95367735      -0.91697793       0.17519171
C        8.78242933       1.61399861       6.55612851      -6.57233025       0.89952326      -4.65525726       2.07868605      -3.52054933
C        0.84948207       0.74367503       6.22760357      -5.64867754       0.86895514      -3.88676651       2.35775757       0.29607087
C        7.28930441       9.34573281       0.75450318      -6.81026245       0.85610811      -4.24571640      -0.56392983     -11.00688039
C        7.72667247       2.62137724       5.84965920      -6.92722125       0.88197084       1.57306240      -0.05170415       2.39778137