      50
 Properties=species:S:1:pos:R:3:velocities:R:3:forces:R:3:local_energy:R:1:fix_atoms:S:3 Lattice="9.9905032156        0.0000000000    0.0000000000    0.0000000000    9.9905032156    0.0000000000    0.0000000000    0.0000000000    9.9905032156" temperature=5803.39293260 pressure=10411.56444507 time_step=1.0000 time=1000.000000 energy=-248.170884 energy_soap=-352.08477771  energy_2b=102.75439825 energy_3b=1.15949552 energy_core_pot=0.00000000 energy_vdw=0.00000000 energy_exp=0.00000000 energy_xps=0.00000000 virial="-22.62942208          4.43254460      3.30100067      4.43254460    -11.21433791      5.25922817      3.30100067      5.25922817    -20.23090536" stress="0.02269402           -0.00444520     -0.00331042     -0.00444520      0.01124635     -0.00527424     -0.00331042     -0.00527424      0.02028865" volume=997.153669 step=1000
 H              2.78976816       2.31325257       6.83847207      -0.00717870       0.03572975      -0.04545719       0.48428681      -3.08736844       0.79949188      -2.52952462 F F F
 H              9.11885825       2.98841919       4.20808622       0.05220607      -0.02568065       0.04436799      -0.88682813       1.76023366      -1.76713568      -2.92190244 F F F
 H              7.32960908       4.65582251       6.29165492      -0.06107149       0.09596700      -0.09281712      -0.18768571      -0.18337594      -1.07562149      -2.97864702 F F F
 H              7.51261095       1.94586001       9.93722485       0.04686606      -0.10063340       0.01023025      -0.29236045       0.48007472      -0.32872354      -2.94991471 F F F
 H              8.39213959       0.55374760       1.54963945      -0.08502624       0.05220441       0.01986037      -1.87024835       0.32094723       1.73172458      -2.02933015 F F F
 H              1.34302054       1.14863442       6.61524022      -0.05045443      -0.02208878      -0.02349428       1.03956157      -1.97369141       0.84240989      -3.35220475 F F F
 H              3.92671161       3.38444511       4.70478375      -0.10546268       0.03249916      -0.07797647      -2.08894948      -0.72151591       0.52742146      -2.92978077 F F F
 H              7.92411931       0.61935068       2.27680784      -0.03532529      -0.04467569       0.10518644       0.11768767       0.73617031      -0.98351174      -2.85714491 F F F
 H              4.98221067       7.63246070       5.43181780      -0.09618960       0.00338588      -0.08415732       0.58401314       0.92729808      -5.65483196      -1.11877208 F F F
 H              7.77681074       7.96809617       1.06785816       0.01444324       0.02216984       0.07740073      -4.34781873       1.05221462      -3.78116689      -1.09269026 F F F
 H              1.80250695       0.88898806       9.60965948      -0.00051568       0.07418886       0.01816120      -0.54487601       6.11558148      -2.94946016      -1.87262315 F F F
 H              0.71803677       9.28652991       9.15369741      -0.04919540       0.01928693      -0.03988076      -0.06962163      -0.66684215       0.97466556      -1.70072351 F F F
 H              7.10576159       2.11557370       4.12620439      -0.05051786      -0.07023448       0.00823987       0.58809520      -0.01195400       2.04386624      -2.78619338 F F F
 H              7.36857589       2.72707339       9.93030100      -0.05115170       0.10146004      -0.03982260       0.24302079      -1.17446087      -0.11378386      -2.86304772 F F F
 H              4.53200462       3.64307292       4.57843429      -0.04259288       0.03527078       0.00365662       2.12728823       0.78870285      -0.36483281      -2.95229848 F F F
 H              9.17997285       9.14059135       6.75993137       0.10370490       0.11602535      -0.21247443       0.89458288       0.96459431      -4.59413987      -2.37413041 F F F
 H              1.34012445       3.74104423       7.12090521       0.10336864       0.02895792      -0.03614632       0.23736478       0.42918249       0.43489467      -3.10172658 F F F
 H              9.36899206       9.35031059       5.66836203      -0.12519792       0.02620679      -0.05400598      -0.76212794      -0.87733769       4.79401545      -2.33442712 F F F
 H              7.54351747       2.19059514       4.91016323       0.21258374       0.06478609       0.10109268      -1.88654028      -0.65633020      -1.80183125      -2.57836736 F F F
 H              1.10577552       2.85422818       7.56471287      -0.03339952      -0.03870229      -0.02830298      -0.81903595       0.05138538       0.45893056      -2.41049795 F F F
 H              7.36434775       4.51451087       5.50437156       0.02102623      -0.07256893      -0.01422521       0.04249794      -0.06351306       0.71060322      -2.96823108 F F F
 H              6.07811467       7.30287833       3.40145801      -0.03018138       0.04893491       0.07574736       0.63436408       0.18078953      -0.59052942      -3.16844944 F F F
 H              5.60309629       6.88241509       3.78258219       0.00886003       0.06174850      -0.07185169      -0.18072545      -0.40931821       0.08931108      -2.59056222 F F F
 H              0.82338457       5.65502300       6.82830880      -0.09741265      -0.08374122      -0.06152842       2.23111639      -1.44184088       0.43076152      -2.10230432 F F F
 H              6.08397465       9.35799163       7.01979511      -0.07318210      -0.05889067       0.06488458       0.85381346       0.71386479      -0.17697253      -3.16854613 F F F
 C              3.56947707       9.48636677       9.80812709      -0.00279796       0.00972421       0.00943494      -1.15973159       0.79424054      -1.23817599      -7.98649484 F F F
 C              2.28250961       1.00533563       7.27637268       0.00616239       0.03768483       0.00639879       1.66423895       1.02812309      -0.69016142      -5.78853662 F F F
 C              5.25573483       8.78109937       7.33806982       0.00246404      -0.00524082      -0.02903851      -5.66598324      -1.48659594      -0.00829818      -7.65985148 F F F
 C              8.23035017       6.49039829       2.55617609       0.00302332      -0.00559071      -0.01275004       1.90818234       1.64676200      -3.11947093      -7.04870829 F F F
 C              8.88874094       9.00510349       1.53505009       0.01304116      -0.04266003      -0.00041368       2.18882798      -2.01813961       1.56527822      -7.69995486 F F F
 C              5.36828149       5.42129924       8.28467370       0.00473290       0.01356562      -0.04237567      -6.90227825       1.57023918      -8.74350620      -7.18985256 F F F
 C              7.89209688       4.28473986       0.91461139      -0.00695843      -0.00064376      -0.00157243       1.02273594       1.09906332       3.23856004      -8.41450914 F F F
 C              6.47420011       4.88679820       0.96539645      -0.04071016       0.02103826      -0.00190891      -1.77934832       1.83325925      -0.76811658      -3.21614555 F F F
 C              8.37386693       7.70881350       1.78247129       0.00247814       0.01136014      -0.00915024       2.49040448       0.10365555       3.89103081      -8.83449610 F F F
 C              0.02854404       9.55047940       1.22548261      -0.00804567      -0.00768486      -0.02371119       2.25873087      -1.77964055      -1.20631421      -8.30538525 F F F
 C              8.28280363       3.53534199       3.48633995      -0.00057722      -0.03345718       0.00747954       4.22265590       0.18009387      -0.62640362      -7.00091700 F F F
 C              5.08962883       7.06764984       6.26100419      -0.00463818      -0.02853928       0.01566893      -2.12469749      -4.33952875       6.85157732      -7.47727255 F F F
 C              7.23407100       5.96233278       0.70912886       0.00674000       0.01364865       0.01710485       0.97408369      -1.80112768       0.66800166      -7.96990973 F F F
 C              9.33367587       5.62218921       2.55990167      -0.03084109       0.04234767      -0.00098781      -2.43186394      -2.19670869      -0.25307385      -7.38482664 F F F
 C              3.34670857       5.05541249       7.04934899       0.03510526       0.00379020      -0.01026156       1.20450839       1.98011156      -0.33628750      -7.96023159 F F F
 C              8.96880645       4.16029894       2.28799138       0.02613828      -0.01097648       0.02823160      -4.35175555       2.05319478       0.09453672      -6.93826435 F F F
 C              3.50108896       9.74928479       7.49024317       0.00793659       0.01007901       0.01731971      -2.69521592       2.50527358      -2.45069684      -8.35027300 F F F
 C              1.23737363       9.44367512       0.45662199       0.02573228       0.00481869      -0.01465557      -3.71879169      -1.23054386       0.10628885      -8.48358456 F F F
 C              4.67712992       5.84810034       7.08098964      -0.03408879      -0.01475977      -0.00016015      -0.90781129      -0.09114376      -0.50829807      -7.84161264 F F F
 C              4.15006648       8.22652765       6.26146336       0.03076753       0.02541999      -0.00274739       2.55367623       1.57065917       3.15683305      -6.61428272 F F F
 C              2.26139602       0.10214765       9.90641228      -0.00345998      -0.02292362      -0.00297372       4.15091133      -4.70679006       2.30616951      -8.28200658 F F F
 C              6.20647712       5.40128331       9.11294936       0.00117916      -0.00704625       0.02587785       6.37938706      -0.60991264       8.96325580      -8.55932902 F F F
 C              4.10958889       9.23264104       8.53889140      -0.00793815      -0.01190768      -0.00238480       1.84080088       0.43587109       0.93636693      -5.81948786 F F F
 C              2.12342713       4.68514229       7.10632760       0.02582305       0.00748868       0.03411241      -0.54234650       2.19730510      -0.86568114      -6.78054346 F F F
 C              5.13526721       5.45691551       0.91779818      -0.01502314      -0.03489955       0.02317545       3.27980492      -1.99121122      -0.61896929      -6.83236699 F F F
