      50
 Properties=species:S:1:pos:R:3:velocities:R:3:forces:R:3:local_energy:R:1:fix_atoms:S:3 Lattice="9.9905032156        0.0000000000    0.0000000000    0.0000000000    9.9905032156    0.0000000000    0.0000000000    0.0000000000    9.9905032156" temperature=7833120.09425708 pressure=**************** time_step=0.5000 time=0.000000 energy=-132.232144 energy_soap=-119.49701510  energy_2b=-12.38694173 energy_3b=-0.34818680 energy_core_pot=0.00000000 energy_vdw=0.00000000 energy_exp=0.00000000 energy_xps=0.00000000 virial="-38.96686118        -14.75502577      7.40550108    -14.75502577    -43.06986452     -6.29230724      7.40550108     -6.29230724    -56.63063870" stress="0.03907809            0.01479714     -0.00742664      0.01479714      0.04319281      0.00631027     -0.00742664      0.00631027      0.05679229" volume=997.153669 step=0
 H              7.21820261       8.05958608       6.78971075       0.20826166       0.75325812       0.79602385      -1.78541950       1.35162328       2.64856781      -1.84899353 F F F
 H              4.48882132       4.91965489       6.53995091      -2.94939157       2.22532570       1.32334255      -1.39960034      -2.82409094       1.03494930      -1.71892041 F F F
 H              9.50287042       7.54509799       2.13701770       0.66090660       4.30485500       1.31122196       1.21619258       0.67424508       0.40373024      -0.62692376 F F F
 H              5.93899784       4.12834681       7.33609201       1.20058264      -1.35089768      -3.52694186       0.08408096       1.93810800      -0.83595682      -2.40371586 F F F
 H              0.18258255       5.12617874       0.09200040      -1.08497255       0.57786877      -1.53954762     -60.78955481      56.48545281     -17.00488885       5.92748282 F F F
 H              9.41547499       4.25250674       6.10626600      -2.10003626       2.36790261       1.38113365       2.75593864      -0.48748876       0.42418515      -1.93396038 F F F
 H              1.58505841       7.79656037       2.65972432       0.70935406       2.57804264      -2.58184092      -0.65500463      -0.50766186       0.06136839      -1.21349157 F F F
 H              7.40569674       2.92652737       5.54615324       1.06009470       3.41274475       3.41327956       0.19782541      -1.95445164      -0.86427318      -1.42148221 F F F
 H              3.07835206       6.28225891       3.03150303       2.87071809      -1.89595077       6.42485207       0.84999188       1.66902030      -1.05436936      -2.45578837 F F F
 H              4.06783107       4.36023124       0.77605883      -3.23711096      -4.07303980       0.34798139      -0.63191444       0.28650343       0.22234975      -1.51535653 F F F
 H              6.16101164       6.32737105       8.25074369      -4.03175586      -5.82727961      -1.01064163      -0.91746375      -1.34683084      -0.03338106      -1.48445711 F F F
 H              4.13962120       8.32914256       5.72156781      -1.04207939      -0.67125542      -1.42978915       1.15881109      -1.37508269      -0.20667920      -1.33817645 F F F
 H              0.87431569       5.71020792       4.28310859      -0.71623605      -1.01335474      -0.15119507       0.72708852       0.22779838       0.56812726      -0.65719024 F F F
 H              3.55241069       4.23711451       4.35272568      -5.30149692       1.70939685       1.90908606       0.16331401       1.50790457       0.62126097      -1.21567910 F F F
 H              3.25385057       6.62817967       4.78035185       1.22595063       4.23381449      -0.01669710      -0.49919070       0.47264573       0.54590521      -1.79736113 F F F
 H              6.71225141       0.53793874       4.47778531       1.82368369      -0.60275947      -4.74206284       4.60700582      -5.88794081      -0.59031105      -2.03650291 F F F
 H              9.28280710       0.72014768       3.11684145      -0.07975842       0.68911666       0.48847183      -1.55740252       1.01052943       1.53105557      -1.93514776 F F F
 H              7.76860900       7.77312148       6.55970360       1.67465173       1.20865608       0.59767496       3.35242108      -1.33276961       0.02039670      -2.12097963 F F F
 H              1.45719161       1.49294505       0.97117257      -6.91663984      -3.25678113      -0.28498058      -0.91424487       0.90930465       0.09195183      -1.15604889 F F F
 H              5.92428189       5.32207097       4.41780230      -0.94651003      -4.57515977      -1.30144124       1.25790608      -0.56986556       0.26598603      -1.42309306 F F F
 H              3.53566764       7.21115180       3.03383701       0.72749938      -1.10505076       1.09017940      -1.66943963      -1.94429152      -1.30934825      -2.22167412 F F F
 H              9.24053960       3.04235569       4.88431356      -4.35982910      -2.16029346       5.16104850       0.63948699      -0.94255360      -0.49904340      -1.47497969 F F F
 H              0.22792900       0.45879225       2.11748504       2.35077652       0.13376016      -1.97604386       0.83724543      -0.87594269      -1.88119416      -2.57818852 F F F
 H              1.22106037       9.67331196       5.23009753       2.79852937      10.42103393       5.10001007      -0.24829229       0.28529320      -0.14274439      -0.35238388 F F F
 H              0.84139663       1.76536418       8.28737756       1.85686257       1.82245197       2.29669986      -0.72701303       1.68138329       0.34335471      -1.25656679 F F F
 H              0.81104326       4.62192970       6.65032218       1.87297651       2.40998197      -3.00767844      -2.50961732      -0.10138212      -1.15952771      -1.46208194 F F F
 H              9.29734404       0.34243290       2.07940653      -5.88763754      -2.39157881      -0.35593861       0.65782255      -0.16506585       0.20796739      -1.55692328 F F F
 H              1.40520812       1.78070089       3.19579169       0.07659084      -0.35582929       0.11186923      -1.76308982       1.50652116       0.54857199      -1.43904907 F F F
 H              3.81800462       5.55584491       5.44830932      -3.41575834       3.47455154      -0.76114145      -0.21023317       0.02918142      -0.77323233      -1.24236176 F F F
 H              6.32816232       9.95247260       5.41134139      -5.72441278      -1.11496019       4.47446822      -1.01072549      -1.80633544       2.02861168      -1.58510887 F F F
 C              4.53008509       2.44559124       0.62841845       0.41306012       0.48135456      -0.14782465      -1.72748418      -2.47887049       4.99479338      -3.35744314 F F F
 C              1.83582565       5.45569225       9.84388047      -0.29809653      -0.58012193      -0.02167961      -2.40677247      -5.30692814       3.55543823      -6.67227970 F F F
 C              2.52355081       6.65823746       6.68979414       0.23171967      -0.06519901      -0.20086144       3.47290937      -1.24952169      -0.36839597      -4.83877949 F F F
 C              5.40968050       5.91654166       0.38010875      -1.97280135      -0.31131685       0.44975461      -1.02875015       2.16111978      -0.31309881      -3.25142965 F F F
 C              6.66631491       7.15655418       5.39465656      -0.02813392      -0.08924823       0.01865456      -3.94365161       3.90821024      -2.11434196      -6.29771913 F F F
 C              7.33054144       4.02405037       9.78551059      -0.01114386       0.09546880       0.17651925      -1.13265983       1.50426922       0.33818984      -0.72201856 F F F
 C              9.87442994       2.55546202       3.38054849       2.14038605      -0.40711651      -0.79423108       0.24695469       1.08219645      -2.79664807      -7.49808192 F F F
 C              9.61669420       3.06880948       2.06176080       0.52320127       0.46716194      -0.19003518       0.57267099      -0.72746297       2.78128608      -6.05889351 F F F
 C              9.05071671       1.64582711       6.21723977       0.17691905      -0.16638908      -0.25028850      -0.64429535       2.08099477      -1.94518574      -2.93151671 F F F
 C              6.42300292       1.43772347       4.24778206      -0.18176913       0.18541433      -0.36778314      -3.08712304       8.41684955      -1.05745180      -3.18164950 F F F
 C              6.27809015       8.53445481       5.09302231      -0.06366206      -0.40916797      -0.27947793      -0.71467431      -3.99238061       0.67194052      -7.51763718 F F F
 C              0.60628556       4.72127789       0.22074960       0.49259332      -0.68883118       0.33716344      64.31479253     -61.28829475      12.05011099      -2.16740141 F F F
 C              4.34250123       1.08086056       2.25120822      -0.61713772       0.15314082       0.91880163       1.23568399       3.61057376      -3.51221071      -2.13050504 F F F
 C              4.13795638       7.76398551       0.94872133       0.04188346      -0.05084470      -0.32247921       0.04595298      -1.67539134      -6.46266581      -4.97986579 F F F
 C              5.60152685       5.32628836       6.68269193       0.55219677       0.25808504      -0.14160764       0.70124320       1.59716337       0.74167620      -7.39443287 F F F
 C              3.77006960       8.11035136       9.43306232       0.19645941       0.21451234       0.08784404       1.81420232      -2.15695625       6.31774469      -3.91529802 F F F
 C              2.93023048       4.52446035       1.29322972       0.71089742       0.32494799      -0.17844974      -0.00451254       1.53821745      -3.50705533      -4.93447908 F F F
 C              0.49392233       3.27085997       9.36194642       0.07678714      -0.45073837      -0.23006412       1.19410148       5.55579938       5.64096642      -5.82468240 F F F
 C              7.55648394       4.64576605       3.10097202       0.07268648       0.01288887      -0.03629676       0.44243109      -1.09322034       1.03560911      -1.43909128 F F F
 C              4.36206313       6.12699183       6.52971791      -0.21266937       0.02284710       0.03355572      -0.56794394       0.59987180      -1.26409148      -7.57383525 F F F
      50
 Properties=species:S:1:pos:R:3:velocities:R:3:forces:R:3:local_energy:R:1:fix_atoms:S:3 Lattice="9.9905032156        0.0000000000    0.0000000000    0.0000000000    9.9905032156    0.0000000000    0.0000000000    0.0000000000    9.9905032156" temperature=7116366.24636379 pressure=**************** time_step=0.5000 time=10.000000 energy=-137.790399 energy_soap=-115.60187569  energy_2b=-23.59224069 energy_3b=1.40371763 energy_core_pot=0.00000000 energy_vdw=0.00000000 energy_exp=0.00000000 energy_xps=0.00000000 virial="-67.13594663        -20.94712105    -10.76430224    -20.94712105    -63.90134397     10.85210766    -10.76430224     10.85210766    -44.90119718" stress="0.06732758            0.02100691      0.01079503      0.02100691      0.06408375     -0.01088308      0.01079503     -0.01088308      0.04502937" volume=997.153669 step=20
 H              3.16299348       7.03799571       6.05749507      -0.81335542       0.97481325      -0.63789544       0.39413324      -1.16473423       1.15241503      -1.31007032 F F F
 H              4.58058262       6.44424542       8.63008777      -2.96233488       2.10360823       1.10863434       0.58390074      -2.68640508       1.41685628      -1.08982774 F F F
 H              5.95390081       9.68582000       4.95514332       0.67326023       4.02573659       1.35017252       0.06721476      -0.97180724      -0.23325436      -1.33760584 F F F
 H              7.00120726       1.14878423       2.19931878       1.01501254      -1.25138137      -3.51656034      -2.23389996      -0.41985584      -2.44367008      -2.37478010 F F F
 H              9.59107024       5.39722107       8.03143797      -0.99306112       2.53597432      -0.98008876      -0.70717867       1.38553830       1.12374079      -1.20706488 F F F
 H              7.89571579       6.81206707       6.53512064      -2.16074371       2.16734140       0.87379517      -0.59298476      -0.99492688       0.43586118      -1.62286652 F F F
 H              5.66487577       7.91196646       5.26522956       0.24330537      -1.14817122      -4.16508217      -0.03472947       0.17780526      -2.83634390      -1.90472380 F F F
 H              7.95110959       6.15501835       8.74105091       1.00548792       3.22652305       3.21651315       1.00902069       0.22460097       1.37661491      -2.68350322 F F F
 H              1.06616673       6.72318862       5.76043348       2.74740324      -1.92459954       6.09435766      -0.82810334       1.08726535      -1.27429368      -1.63735972 F F F
 H              3.25742186       2.93999474       2.44622114      -2.95816501      -4.21691311      -0.01725596      -0.88089834      -0.15103769      -1.21623366      -1.89111446 F F F
 H              1.94678536       2.50797212       0.17304730      -4.86543196      -4.86608137      -0.56543381       0.91450092       0.33114838       1.02299144      -0.68018816 F F F
 H              3.94288355       1.42734456       1.64599417      -0.99408957      -0.66251570      -1.38558965       0.31749867       1.80128122      -0.50880723      -1.32315732 F F F
 H              3.63037988       5.89738824       2.77591885      -0.73160986      -0.90594610      -0.12790611       0.97382590       1.62884553       2.23575365      -1.87060752 F F F
 H              2.21432712       8.99241937       2.06103642      -4.76785960       0.98889186       1.44168092       0.44701127       0.63339967       1.53674933      -1.10175895 F F F
 H              6.91029509       4.21132820       7.48915626       1.37802089       3.50401849       0.35514030      -0.39649348       1.17243308      -2.97274345      -1.90823794 F F F
 H              4.70606356       4.52657959       7.97021693       1.73319357      -0.57948964      -4.52709517      -0.23928877       1.39724045      -0.26194268      -1.27443815 F F F
 H              8.35275211       7.52380839       7.88235172      -0.11158409       0.67213831       0.45118309       0.74910817       0.81441989       0.61663157      -2.40087828 F F F
 H              4.09284843       8.72383025       2.30073821       1.63446309       0.93955555       0.52908331      -0.24685665      -0.83141055       0.29354935      -1.26749645 F F F
 H              5.81373152       1.48185815       7.75302997      -6.46584625      -1.35035496       1.41529726       0.06055909      -0.78000324       0.48532457      -0.61076492 F F F
 H              6.22080216       0.80512908       1.61014814      -0.98374744      -4.32372617      -1.29455950       2.32547898       1.18827014       1.19160616      -2.61426068 F F F
 H              0.90201649       6.54076251       3.60171067       0.73383483      -1.00891836       1.00317651       0.18664912       1.03413458       1.39897995      -1.11086675 F F F
 H              6.62751757       1.76353553       5.47004866      -4.16809386      -2.06328682       4.90323881      -0.59796097       1.61802226      -1.66833658      -1.42759559 F F F
 H              4.24649995       4.23223548       3.65496543       2.30855809       0.41121213      -1.77179210       0.83796055       0.02780132      -0.34160675      -1.44593912 F F F
 H              8.99274044       1.23772376       4.58921324       2.73935797       9.84938316       4.76341570       0.54968385      -0.58599116      -0.38364892      -0.65623550 F F F
 H              1.54706148       3.02341470       2.41141003       0.69762522       2.22043752       1.01874429       2.62407795      -0.44396069      -0.65139588      -1.11509232 F F F
 H              8.85902142       8.76125239       6.91473077       1.42337511       3.09608702      -3.78420317       0.91420095      -0.86557855       1.28833005      -1.68587562 F F F
 H              1.09383485       8.08429762       8.42938140      -5.68497120      -2.10967437      -0.37612596       0.80264550      -1.79160837      -0.35622677      -0.71276243 F F F
 H              2.49040382       8.41418545       4.41250852       0.07884844      -0.28488301       0.11041441      -1.19741401      -0.08206545      -0.35135760      -1.36020846 F F F
 H              0.51570309       9.57377619       8.28830810      -3.23486267       3.31783771      -0.66516450       0.88857104       1.10665065      -0.90554449      -1.37983164 F F F
 H              0.44398250       9.12690200       9.20773108      -5.44062658      -1.04595370       4.27428619      -1.79732560       0.54979520       1.66991485      -0.74107835 F F F
 C              8.43792617       7.14056264       9.10457471       0.39128018       0.38492347      -0.08887920       5.07482359       0.33570526      -1.97227174      -6.52795544 F F F
 C              8.94092736       9.73081177       9.58913918      -0.27898180      -0.56026021      -0.02951186       0.70416920      -2.79869502      -0.79780900      -3.60041729 F F F
 C              4.15589904       6.36511378       4.06740577       0.13641490      -0.01322308      -0.28622765       2.32104245       1.32169621      -4.30236995      -5.32416024 F F F
 C              6.37249403       3.19376392       4.28075445      -1.80393611      -0.27732265       0.34851263       1.27923553       1.17046808       1.52122977      -3.08129095 F F F
 C              6.87299478       4.85160173       6.09155979       0.04615841      -0.28778112       0.08935936       0.79706564      -2.19750279       1.77856437      -3.62658091 F F F
 C              7.25426383       4.92814979       1.67538759       0.00153091       0.08570950       0.20274017      -0.45549869      -3.24296869       5.74478030      -5.54889975 F F F
 C              1.38964842       8.47663102       6.40536127       2.13206984      -0.40981542      -0.63258254       2.48396046     -17.56526375     -29.03976321      -3.31284810 F F F
 C              4.76496488       7.55692332       0.15932384       0.49840937       0.43749187      -0.19513710       0.33393680       4.34979071      -3.27726166      -3.68048914 F F F
 C              0.93812628       9.94149426       3.73860720       0.19459990      -0.17229368      -0.24218913       0.47405087      -2.03965734       0.51940953      -2.53466738 F F F
 C              4.62118653       3.27111146       0.63559182      -0.17416819       0.17868647      -0.34997318      -0.53936898       1.28925459       3.75582954      -2.88712811 F F F
 C              5.57092334       4.82783097       2.03980899      -0.04675486      -0.34561286      -0.32679357       3.24576267      -2.17526207      -0.93436390      -5.51226386 F F F
 C              5.65236706       7.68867424       3.80202476       0.49516619      -0.68730590       0.35541964      -4.60344745      -0.24826291       3.15344825      -4.68208731 F F F
 C              8.25289870       2.56919879       1.23254239      -0.59469326       0.13845974       0.87652369      -1.22758498       1.50734255       1.28322103      -1.96469469 F F F
 C              4.38612323       7.19939221       7.90288223       0.01075082      -0.00070301      -0.26696232      -3.83548764      -0.30013235       1.10138446      -5.57566266 F F F
 C              0.96780204       7.87034630       5.28227545       0.51670635       0.24806584      -0.13468865       0.80572886      -1.64580482      -2.96543670      -9.84571312 F F F
 C              5.59106812       9.63128425       9.65219194       0.16918853       0.33915497       0.09495059      -1.46810410      -2.62418463       1.23559870      -2.24700598 F F F
 C              0.06106452       7.40639729       9.70365878       0.69047879       0.28570286      -0.14112942      -5.43582957       0.58189817      -2.75295580      -6.27924054 F F F
 C              1.33841298       9.04499077       7.25661752       0.08269842      -0.39583431      -0.18835304      -4.04777145      18.34840517      30.24366233      -8.15856510 F F F
 C              8.25995356       4.86766029       3.03845298       0.06081832       0.03108463       0.01438302      -4.76507375      -1.69403490      -4.86084134      -3.99181878 F F F
 C              2.98520829       6.07687248       7.53377173      -0.09527353      -0.01281403       0.13573217       3.96548315       3.21794127      -0.27396807      -5.66271863 F F F
      50
 Properties=species:S:1:pos:R:3:velocities:R:3:forces:R:3:local_energy:R:1:fix_atoms:S:3 Lattice="9.9905032156        0.0000000000    0.0000000000    0.0000000000    9.9905032156    0.0000000000    0.0000000000    0.0000000000    9.9905032156" temperature=6515851.43513836 pressure=**************** time_step=0.5000 time=20.000000 energy=-76.388661 energy_soap=-72.50183519  energy_2b=-6.83015401 energy_3b=2.94332851 energy_core_pot=0.00000000 energy_vdw=0.00000000 energy_exp=0.00000000 energy_xps=0.00000000 virial="5.18512286           67.51169230    -15.36365269     67.51169230    111.39401298    -31.91835054    -15.36365269    -31.91835054     35.30278422" stress="-0.00519992          -0.06770440      0.01540751     -0.06770440     -0.11171198      0.03200946      0.01540751      0.03200946     -0.03540355" volume=997.153669 step=40
 H              2.15421218       9.08635774       3.38747958       1.21815675       2.32482865      -0.18032841       0.93647085      -0.83073908       0.21542324      -1.74477755 F F F
 H              5.68909468       6.84012836       8.88204354      -2.85283792       2.02019956       0.86441526       0.40258898       0.35002325       2.20547145      -1.31316290 F F F
 H              1.70175181       8.75104974       8.04015372       0.49772970       3.81432928       1.26885349      -0.25252351       1.01542825      -0.03435449      -1.59117660 F F F
 H              7.49338848       8.95197690       8.10567220       1.04203047      -1.18683014      -3.31905567       0.41789475      -0.81208285      -1.77865387      -1.40732453 F F F
 H              9.83243796       0.40041039       8.37044325      -0.73379537       2.26865009      -0.95658942      -1.07741044      -0.57401323       0.56103371      -0.01609483 F F F
 H              6.64628806       8.07683411       5.29824446      -2.20802409       2.18946070       0.65470460       0.74234761      -1.29514679      -1.33822302      -1.68090134 F F F
 H              8.12524510       6.05933735       3.27053817       0.43083414      -1.45262990      -3.92777855      13.31495058     -17.26891858     -17.22935735      -0.73211630 F F F
 H              7.85085393       9.40777326       9.68086595       0.97261008       3.32374534       2.99125509       0.12920129       0.32689094       3.35291430      -1.82434453 F F F
 H              8.13779989       7.70468110       4.71183073       2.58831078      -1.90313204       5.72823660      -2.00464986      -0.50502724       0.06112446      -2.00509207 F F F
 H              4.39503508       9.75001123       3.38501098      -2.84378504      -4.06938714      -0.04273746     -19.03905264      78.06201883     -53.41628980       4.74862025 F F F
 H              4.42193913       5.18041844       4.76306635      -4.67686531      -4.58081976      -0.50318769       0.02289450       0.47840663       0.36711643      -1.87074926 F F F
 H              4.28395173       4.55023124       7.48071034      -0.93874882      -0.70728581      -1.44139101      -2.41570853       1.27473814       0.44391803      -2.09544824 F F F
 H              7.84367147       7.74818949       1.97302363      -0.46925409      -0.72042166      -0.05910882       0.09453327      -0.73894488      -0.44588478      -2.30269304 F F F
 H              2.58470636       9.67360936       3.06501409      -5.56449604       1.22875128       0.37423843      -0.78981859      -0.74122976      -0.08785909      -2.52917962 F F F
 H              9.54275516       7.59681893       0.00599069       1.09633918       3.22070181       0.19375329      -1.20033898      -1.96419144       0.81279484      -1.22732039 F F F
 H              0.97137735       8.33729753       3.56105541       1.54339741      -0.62715715      -4.34646175       0.59145930       0.70902763      -0.54436055      -1.92124610 F F F
 H              6.89720306       5.17444991       2.05957004      -0.11633843       0.77208705       0.38860014       0.35094830       0.94547317       0.97875753      -1.77643715 F F F
 H              9.84510387       8.86778424       7.58471365       1.52313534       1.13887751       0.50159867      -0.35754617       0.01610759       0.10271101      -1.47286463 F F F
 H              6.43546344       4.74908030       9.38006185      -4.66523674      -2.04847225       0.39400859      59.04924558     127.00825432      13.01556196       8.52912109 F F F
 H              6.88390465       8.58901119       8.52890325      -0.89412831      -4.15496341      -1.33424561      -1.57522817      -2.35236468      -0.24164651      -1.95519522 F F F
 H              8.11204436       6.52463896       3.43905719       0.67547365      -0.92829328       0.98105623       0.25493713      36.22567379      10.09800668      -0.24734115 F F F
 H              4.88468017       2.90901887       2.19690913      -4.17935514      -1.74176852       4.40033633       0.73816315       0.25040665      -0.50567270      -0.38335318 F F F
 H              9.08949269       6.11465746       0.74259444       3.16811111       0.04138597      -0.45293745       0.41276689       2.26969575       0.37994163      -1.46907776 F F F
 H              5.94446190       7.46912252       1.42071779       2.72454926       9.42384761       4.67268798      31.97441517      37.52073239      45.10979807       2.76191799 F F F
 H              9.28056914       4.35413005       2.28225517       0.85570781       2.08073803       0.97037206      -1.98629936       2.32720955       1.26786924      -2.93948992 F F F
 H              1.41123671       0.36222142       8.31029633       1.16371298       3.11131593      -3.77734463      -1.53558653      -2.45497876       0.87074045      -1.24612628 F F F
 H              5.39870821       6.73634393       4.54966664      -5.39784542      -2.14712264      -0.37330019      -0.97156110       1.56743093       1.48205290      -2.09476475 F F F
 H              3.13099752       5.49144425       4.84325655       0.03538336      -0.29170552       0.08012834       0.73699736      -0.00928124      -0.30151952      -2.25839306 F F F
 H              9.13648262       2.33510494       1.35333454      -3.10881450       3.31306042      -0.71211135      -1.83293498       1.00192612      -1.09853432      -1.04181972 F F F
 H              7.25927860       9.11583529       0.95867220      -5.34095031      -0.78209790       4.07548178       0.88035284      -0.97908505      -1.19379018      -2.11014582 F F F
 C              2.34806174       0.93361539       8.27763245       0.37696683       0.37208011      -0.08738148       1.70519891       1.65297866      -1.26216121      -3.83846940 F F F
 C              6.21658262       4.26344480       9.33376266      -0.27718048      -0.55454177      -0.02381467     -57.08627186    -129.71902742      -9.83380309       6.10801137 F F F
 C              5.61177970       7.11159173       0.98336780       0.15016717       0.22890786      -0.35607630     -32.69403185     -38.10131793     -46.14963659      -0.02058817 F F F
 C              8.73428384       0.44678059       7.73324362      -1.72531102      -0.30162620       0.36333084      -0.45634136       3.20667846      -0.62073423      -7.71918392 F F F
 C              7.35463257       2.09985579       6.91862687       0.05499738      -0.26805383       0.07804620       1.45669706      -3.44892034       3.31915791      -2.75662072 F F F
 C              7.35932692       5.86248188       3.61059350       0.01427637       0.08599614       0.17777469     -16.35008952      -8.61119706       4.72262184      -0.87753668 F F F
 C              2.09827193       3.50888799       0.45474369       1.98748041      -0.65954936      -0.51523785     -50.91849624     -59.91168906      87.26911917       3.31528340 F F F
 C              9.44292622       2.15291810       8.47736339       0.39183020       0.51124353      -0.09373816      -0.74206844      -2.58631730      -2.85716530      -5.69084394 F F F
 C              2.86341444       8.19875301       1.46127262       0.19502508      -0.17662800      -0.21290924       1.38893227       0.41435448       1.66589478      -2.20795721 F F F
 C              2.93636426       5.08726119       7.31617661      -0.17331182       0.19769739      -0.31763315      -0.88023324       1.50354854      -0.47066326      -5.97900559 F F F
 C              5.13035194       1.40504682       8.74485512      -0.03472873      -0.33930665      -0.32184423       3.69837627      -1.85013684      -1.64756004      -2.54153140 F F F
 C              0.41388261       0.97111043       7.35986385       0.46379933      -0.62916905       0.34122026      -0.08938567       1.47362773       2.63187163      -7.07122947 F F F
 C              2.46423474       3.94494283       9.81752052      -0.54935893       0.13701601       0.82175177      50.68204765      64.29509363     -89.16596536       3.67030508 F F F
 C              4.34941307       7.15608402       5.36400370      -0.01504463      -0.00483879      -0.24525557       1.85203757      -0.62208142      -2.55496406      -4.78562958 F F F
 C              4.53243104       9.27445956       3.71285237       0.32106999       0.10099024      -0.14884557      17.90077932     -79.52751451      53.67034170       2.19074085 F F F
 C              7.22295824       2.86633825       0.66683890       0.15503600       0.30762097       0.10651345      -1.08944034       2.90291917      -1.72759452      -3.38139978 F F F
 C              6.72943172       0.27618819       8.27457380       0.63853336       0.29467396      -0.14210591      -1.56467704       5.28956558      -0.12151714      -5.59112689 F F F