50
Lattice="9.9905032156 0.0 0.0 0.0 9.9905032156 0.0 0.0 0.0 9.9905032156" Properties=species:S:1:pos:R:3:local_energy:R:1:hirshfeld_v:R:1:forces:R:3 energy_soap=-245.1013459 energy_2b=9.58862497 energy_3b=0.00232906 energy_core_pot=0.0 energy_vdw=0.0 energy_exp=0.0 energy_xps=0.0 virial="2.37007005 -1.953392 -1.90043857 -1.953392 5.52482254 -1.07462341 -1.90043857 -1.07462341 -15.70611977" volume=997.153669 config_type=iter_7 energy=-235.510392 stress="-0.00237684 0.00195897 0.00190586 0.00195897 -0.00554059 0.00107769 0.00190586 0.00107769 0.01575095" pbc="T T T"
H        5.29125658       3.80322898       8.15378990      -3.97491114       0.71129035       2.12055856       0.23330365      -2.06541164
H        5.21644062       2.37324159       5.64720762      -4.01612160       0.71912225      -1.56632136      -1.78914482       2.39194618
H        1.63511999       6.66028986       5.26267650      -2.95175032       0.65271379       1.30818509      -0.40553347       0.80033612
H        1.13670850       3.53281816       2.00340394      -3.70495009       0.72076278      -0.19111252       1.84205529      -0.81645409
H        5.86344737       3.10198764       1.11769062      -3.06648785       0.69988897      -0.52261002       0.78663507       1.08692856
H        9.14108314       7.72384406       1.67562078      -3.00796314       0.75576132      -0.40260271       0.59203807      -1.03558004
H        3.25108598       8.79283353       9.24309400      -3.01279352       0.50493518      -4.71912143       0.33666354       8.06042073
H        1.64856108       1.00911617       3.87653292      -2.99261334       0.59808886       2.63110104      -1.49315014       0.97339630
H        5.79119035       6.99149340       2.12410143      -3.69865936       0.72546908      -2.56894859       0.93037179      -1.31955681
H        6.83626039       6.61108070       3.17331779      -3.47657574       0.72753960      -0.80314849      -1.98486171      -1.51148575
H        2.55690395       2.03771468       5.48564207      -4.08976178       0.66827441      -1.18772078       0.45137162       0.82341943
H        3.54000192       8.78454301       8.72472889      -2.22342740       0.52966323       4.05278863       0.25142741      -7.96624624
H        0.18201858       2.36644116       4.64216465      -2.23480932       0.63060098      -0.37721623      -2.25699979      -1.34593268
H        2.68081780       1.96379938       8.69561403      -3.95346025       0.67659535       0.06724505       0.85505302      -2.86956751
H        1.09279151       4.06876041       9.38837053      -3.96496000       0.64434298      -0.52698138       0.60588666      -1.26226546
H        0.73346279       9.96451110       2.26616101      -2.78791790       0.68487377      -0.96762014      -1.83033206      -1.42846635
H        2.40466550       5.36968101       0.13078374      -3.21492963       0.64732650      -1.21859339       0.69836894      -0.45195871
H        6.89375463       7.33759935       9.46317790      -2.41989345       0.62646291       0.70794811       0.33396074       1.52911262
H        4.57727159       7.38932037       8.18561168      -3.45561353       0.70049745      -1.68322611      -2.82343728      -4.12051626
H        1.05610590       1.28019438       3.58696820      -2.36432026       0.61198789      -1.72760528       1.10645585      -1.11888869
H        8.51831641       8.34600621       3.29144910      -3.60229715       0.68340449       0.74402357       0.27032457      -1.07948957
H        0.22734220       9.33706398       2.04677606      -3.10829570       0.71146396       0.89449940       1.76815191       0.62791190
H        0.08324585       2.94041734       5.02213643      -2.92428581       0.60859954      -0.94899934       2.88684338       1.77502891
H        5.53651905       1.19002450       2.54299052      -3.99103583       0.71179948       1.81305057       0.82304950       0.82625929
H        1.12623851       4.14379074       5.98319542      -2.76575476       0.65845073       2.20839261       2.22965027      -1.05880505
C        6.36212619       5.41509950       6.91687857      -5.21897625       0.96082351      -0.15581764       1.60463564      -1.36695898
C        6.51173629       1.92170575       2.58984084      -7.48757982       0.88029680      -2.08115176      -3.68878335      -1.36903100
C        9.95066822       5.52746119       0.52133546      -7.25716254       0.82339383      -7.60000794       5.33024765       5.38083637
C        3.81676245       3.75568689       5.46918381      -5.33304717       0.85858523      -9.50118442      -1.37142568      -2.94536963
C        4.46598058       5.70654654       6.46165302      -7.38430240       0.88984594       2.95901861       1.97998630       2.50171593
C        7.45498567       9.60261423       2.02829714      -7.18286410       0.87977347      -0.37134313       2.58111945      -3.97985614
C        2.82544806       2.19960456       7.56406256      -6.20645635       0.82202666       0.00114514      -0.68540232       4.20531875
C        7.58167591       1.01370651       2.03849178      -6.72657782       0.90644956      -2.85819209       0.55118347       1.96528692
C        4.22132521       6.33709063       4.40373769      -3.40988689       0.99890114       0.82494802      -0.33323818      -1.54918511
C        2.86957250       2.74077150       6.39485242      -5.67180345       0.84187481      -0.78598754      -3.93596221      -1.48044188
C        8.95090418       6.36796029       0.98080709      -7.58282827       0.84065277      -3.16446619      -1.63519295      -0.46000787
C        2.38687571       5.06904117       5.22951844      -5.37707593       0.91878846      -3.08162031      -2.87072139       1.65147706
C        3.91254114       6.72365367       7.10587305      -5.69684291       0.86268111       0.07509679      -0.66505867       1.02590663
C        6.91536884       4.22096027       2.15713203      -5.41925156       0.95868346      -2.70999027       2.21621430       1.48047626
C        3.01243540       6.00486747       5.88905130      -5.86579244       0.89133888      -0.86951399       4.25846129       0.87006830
C        7.11898034       8.59242053       0.94825296      -5.09635531       0.93724428       1.70575325      -0.30690641       2.96807570
C        6.35648238       6.10906231       2.03790318      -6.59067856       0.90229909       7.89696785      -1.64060216       1.43495848
C        5.94567460       3.25911082       2.57310897      -6.39785718       0.93793536       4.66677987      -0.20384762      -3.48146688
C        4.23603034       2.79614191       6.25663374      -7.03024157       0.84039101       4.71743133      -1.24609553      -1.15943758
C        0.98867616       4.57714298       1.50139395      -5.29474209       0.88269616      -1.14116307      -0.39475035      -1.77186057
C        0.92638733       4.95845247       0.05215886      -6.50483472       0.80205336      10.84646526      -8.06764757      -0.66169935
C        8.63421212       8.64149156       2.11490896      -7.31846865       0.87130385      -0.87626866      -0.82587751       3.06608019
C        7.60731072       6.44108574       1.13817881      -6.42491393       0.87114121      -1.69945387       0.52728581      -0.47862121
C        6.13218085       4.22197002       7.26661486      -5.62179047       0.91746069      -2.55138967      -2.58670993       1.93502070
C        4.88061185       4.33401502       5.48890253      -6.40647263       0.89473659       8.61797959       6.99093592       2.77457970
50
Lattice="9.9905032156 0.0 0.0 0.0 9.9905032156 0.0 0.0 0.0 9.9905032156" Properties=species:S:1:pos:R:3:local_energy:R:1:hirshfeld_v:R:1:forces:R:3 energy_soap=-240.54490206 energy_2b=3.5340642 energy_3b=1.19408407 energy_core_pot=0.0 energy_vdw=0.0 energy_exp=0.0 energy_xps=0.0 virial="2.8792161 -3.45189583 12.17943155 -3.45189583 11.75877182 23.5285293 12.17943155 23.5285293 21.73374689" volume=997.153669 config_type=iter_7 energy=-235.816754 stress="-0.00288743 0.00346175 -0.0122142 0.00346175 -0.01179234 -0.02359569 -0.0122142 -0.02359569 -0.02179578" pbc="T T T"
H        7.06129561       3.54482901       7.43825417      -4.02732994       0.68975063      -3.14260413       1.42605832      -0.59481218
H        4.57329118       1.50984747       7.03026769      -3.40614233       0.66969285       0.69785378       2.66145784      -1.93704879
H        2.91285043       7.87513067       6.25580098      -3.37356791       0.67263754      -1.01861800      -3.14535259      -1.55462942
H        0.87269194       3.04044753       1.84334575      -3.60425761       0.71276892       0.96831377      -0.23812765       1.27106259
H        5.10190593       3.77544386       2.73039557      -3.14419990       0.66581356       0.37558528      -1.27225906      -1.44429944
H        9.20460895       7.98915430       1.53577548      -2.38474162       0.77068546       0.10155726      -2.10640296      -2.61480295
H        2.69926137       8.31143208       8.56010950      -2.81064317       0.69827784      -0.69690158       0.79813314       3.60597729
H        3.96408080       1.59080609       3.61067581      -2.98795584       0.66369883      -1.08592589      -0.03790991       0.25525848
H        5.68770726       5.36359176       2.76504681      -3.65845008       0.77046649       2.38155779       2.14757896      -0.99481860
H        5.34705688       8.89909365       3.24318345      -1.67741552       0.83428251       0.80379100       0.35181893      -0.92625676
H        2.22409231       2.01231207       6.14029751      -3.37531114       0.74318216      -2.95097851      -3.78133634      -1.96789524
H        2.50658619       8.52387474       9.43452217      -2.97163803       0.68276545       0.63638380      -0.71332947      -3.34950429
H        0.54720796       3.57661110       5.18112055      -3.25016091       0.63128042      -0.43508784       0.05055264      -0.43784958
H        1.65373086       2.39239663       8.02645817      -3.84080412       0.70767964      -0.61247054      -0.29654261       1.40687306
H        0.19105202       3.49011402       9.78279317      -2.89882135       0.74267653       0.17681128      -0.05023121      -1.14569281
H        0.21569998       0.19852398       2.07505547      -3.36128977       0.67202790      -0.56726366      -0.42604521      -0.32382390
H        9.69166936       4.51105201       9.15495070      -2.40147865       0.69934065       0.90008734       0.73615418       0.39142600
H        6.23867199       8.75683553       1.91701885      -2.98072240       0.73945130       0.01481271      -0.33824784      -0.92741087
H        4.19793631       6.36362823       8.03285056      -4.34323306       0.64867424      -1.60718003      -0.78283594       7.46436350
H        3.27876784       1.74191493       3.92641913      -3.41561682       0.67255073       0.54660380      -0.22251483      -0.29461455
H        9.42262263       8.22267431       3.02153185      -3.17066970       0.67237078      -2.08290034       2.30898776      -0.60583630
H        0.54959885       0.86979645       2.05806739      -3.02863436       0.64259857       0.31446296       0.05360462       0.08313437
H        0.82226906       3.52756815       4.49505175      -3.24214476       0.65597991      -0.56124574       0.14162814       0.16751749
H        5.92969033       1.77221161       3.48836945      -3.48869224       0.74247632      -1.17922936       0.07059285       3.57475769
H        1.83656156       6.37729907       5.47343002      -3.18404028       0.69991942      -9.26181355       1.01897342      -3.27222481
C        6.05270639       5.56234546       6.88041091      -5.59389620       0.90220505       0.93792307      -3.89745668       3.35663972
C        6.18898362       2.00891444       2.55319342      -7.07395155       0.86362069       3.45248204      -1.24816332      -3.27447455
C        9.81467295       5.81409813       0.42250640      -6.75850481       0.89008444      -0.30470085       0.21922362       1.95042373
C        2.85914570       3.67772492       5.21953578      -6.50896421       0.84078965      -0.66841834       0.71600017       1.60075474
C        4.76411043       5.66002674       6.27973774      -5.37299315       0.88158720       1.73681301      11.34768378       6.31611747
C        7.59528012       9.79382468       2.09120973      -6.13703338       0.87333984       2.82824443      -4.16565928      -3.28462958
C        2.67921842       2.17060804       7.71231084      -4.90407960       0.92342585       0.23048954       2.35137031      -1.94857208
C        7.47470011       0.71799932       2.92252176      -6.52591713       0.88448861      -3.99528906       7.80941782       2.75778603
C        4.32568616       5.77991252       4.73192782      -5.24845937       0.88294846      -6.25507342      -2.37602978      -0.02365345
C        2.91519236       2.68601712       6.29925177      -7.17399238       0.85432620       4.40069125       1.65389620       1.63862256
C        8.92911548       6.63489433       1.24759982      -6.93447489       0.86776549       3.02611153      -3.80720700      -4.59039437
C        2.82934663       4.97834821       5.06971623      -6.65153619       0.86932576       3.87118599       2.10165260      -1.10433994
C        4.36005851       6.60542238       7.13763741      -5.64001054       0.82986120      -0.78651275       2.47615685      -3.59668939
C        6.88961000       4.29044854       1.98577006      -6.20403284       0.85961300       0.65941319      -6.63275561      -1.84645984
C        2.64341700       6.52717515       5.89878052      -5.01360507       0.85607584       9.57916151       1.62099550       3.37494440
C        7.29773020       8.93457856       0.95421554      -5.67798665       0.96593882      -0.52053141      -1.08835780       2.60861428
C        6.80308384       5.49421723       2.07899930      -6.84810422       0.86672879      -0.45105555       8.40199466      -1.52551727
C        6.18850519       3.13929803       1.78890541      -6.63611708       0.87184417      -0.71706893      -1.77951114       4.05944620
C        4.45396442       2.64335744       6.16054525      -5.29169253       0.91995707      -1.34573972      -2.35207795       2.09732612
C        1.03623467       3.92959300       1.32448303      -6.58713965       0.86043221       1.95214995      -2.04633498       3.79188419
C        0.59513770       4.51209150       0.32598634      -6.78088129       0.85129667      -5.32614222       3.70911050      -3.96732157
C        8.79419898       8.87166813       1.98017871      -7.13441746       0.88015034       1.11969629       0.87592148       2.45625644
C        7.64742209       6.47129770       1.03273109      -6.75863273       0.90801596      -3.09786808      -1.43077325       4.43895674
C        6.06812736       4.24329863       7.14751762      -6.00297462       0.86984070       5.26355613       0.26086635       1.04534963
C        4.88286906       4.79360312       5.42161227      -6.32939472       0.85893229       1.69488081     -11.07436821     -12.15992021
50
Lattice="9.9905032156 0.0 0.0 0.0 9.9905032156 0.0 0.0 0.0 9.9905032156" Properties=species:S:1:pos:R:3:local_energy:R:1:hirshfeld_v:R:1:forces:R:3 energy_soap=-235.49501063 energy_2b=-3.48513659 energy_3b=-0.53528362 energy_core_pot=0.0 energy_vdw=0.0 energy_exp=0.0 energy_xps=0.0 virial="-26.47377258 -10.07276466 -5.43632806 -10.07276466 -47.89025486 2.53196276 -5.43632806 2.53196276 -2.17250211" volume=997.153669 config_type=iter_7 energy=-239.515431 stress="0.02654934 0.01010152 0.00545185 0.01010152 0.04802696 -0.00253919 0.00545185 -0.00253919 0.0021787" pbc="T T T"
H        7.32568724       3.66446643       6.81862894      -3.91357112       0.67875736       2.62398442      -2.80071495      -0.35102073
H        5.61000974       2.46525241       6.10253294      -3.39762824       0.74940183      -2.39444811      -1.93843915       1.44114653
H        2.03820046       7.46486129       6.41070770      -3.16246082       0.84601802      -2.98587602       1.06316509       3.91027513
H        0.93844258       3.20428492       1.92763650      -3.60584739       0.77092818       2.17384629      -0.37326505       1.65356342
H        5.43024135       4.52253488       3.99047791      -3.29655542       0.73691691       0.01763899      -1.83538029       2.45492761
H        9.45432222       7.76626285       0.79233550      -4.15567462       0.73853964      -0.45516323      -0.49812947      -0.74683419
H        2.32250692       7.94967706       9.23251128      -2.69159739       0.78708610      -2.61693497      -0.35874290      -2.86722848
H        5.29810807       2.17963137       3.35923022      -2.96178875       0.79394775      -1.87764617       0.56805631       0.34095115
H        7.42098339       6.47511054       3.15224799      -3.01216189       0.66625463      -0.84675013      -1.92249806      -1.91081857
H        5.57086687       1.67549994       1.07543517      -3.07719118       0.77449401       1.24405960       1.73380158      -2.05661240
H        2.84786328       1.12341287       5.80293435      -3.90805795       0.67772046       0.09456716       2.49977864       0.47363472
H        1.68475422       7.81114267       8.45378249      -2.57076978       0.75708616       2.30853052       0.61968108       3.46731951
H        0.04533169       4.46972758       3.52843821      -2.97559732       0.71474516      -0.85077762      -0.03437783       3.47125946
H        2.96294884       1.99990504       8.13220161      -3.76998653       0.73712729      -1.49211517       0.89219166       1.31765728
H        9.86765991       4.06032557       9.44642639      -3.74749851       0.67313201      -0.81493010       0.06800673      -1.29631817
H        0.08734679       1.80988390       1.29968272      -3.03074694       0.70477346       0.10472476      -1.97040825      -0.09278363
H        8.72567096       3.76792009       0.88519687      -4.09616380       0.74843648       1.67512506       1.49862332      -0.37259455
H        6.90545146       1.01432238       5.18582115      -1.97814299       0.76328081       0.04297294      -0.21758906      -1.84556817
H        3.85626272       6.55672956       8.03478063      -4.00636932       0.70765377      -4.36069911      -0.72601186       6.80385068
H        5.00830412       2.27615830       4.29239905      -3.04491552       0.79124710      -0.36622814       0.95369550       1.58313752
H        9.50885833       8.82278356       2.83379406      -4.07977935       0.65499920       1.44607813      -0.31215123       0.47314413
H        0.01657768       1.05059615       1.60054210      -3.48739815       0.68145090       0.11051265       1.49170061      -0.69829040
H        9.82912135       4.38337452       4.38748181      -3.08574316       0.69481972       0.93163530       0.27425580      -3.06930637
H        7.13756843       2.59771037       2.81041511      -2.81869207       0.89998492      -0.16065286      -0.25387486       1.11245832
H        2.01984466       8.57472114       5.19195829      -2.35252123       0.75671075       0.94285590      -1.25007411      -0.28644356
C        6.01755784       5.36252973       7.17520579      -6.22747596       0.89953188      -3.01374345       0.26510255      -1.39079635
C        6.11214266       1.80402141       2.73166691      -7.13441756       0.89362760       5.78389496      -2.48845699       1.97578113
C        0.02760676       5.67308678       0.71186962      -6.28889254       0.89115761      -3.78804669       2.59658206       0.64201066
C        2.11768484       3.75780265       5.39420225      -5.34044979       0.93928953       2.55925360       1.90219175      -0.00004804
C        5.01101934       6.41536867       6.05359257      -7.27998825       0.89907486      -1.80715391      -3.02158377       4.17383119
C        7.81593147       0.02233230       2.16167467      -7.33519501       0.86416690      -5.15997596       1.90730476       2.42740117
C        2.28397651       2.65141863       7.39142291      -5.29498829       0.96189491       1.20181952      -1.32055043       0.36843180
C        7.01023849       0.64998723       3.19603425      -6.29746125       0.89985463       0.13428363       0.55755901      -1.45791055
C        4.06273493       5.68117442       5.10847092      -7.00299814       0.89567035      -1.46299922      -0.68160270       1.06676013
C        3.05906871       2.27270302       6.28418552      -6.75182506       0.87823898       1.75644933      -0.12435977      -2.79283417
C        8.99783797       6.76554863       0.88717676      -7.68708640       0.85339159       2.26025372      -3.34994422      -0.04204016
C        2.82079693       5.10573619       4.99974142      -6.67812616       0.89476014       0.44141964      -0.21118438       2.39028315
C        4.43158023       6.61003983       7.32278616      -5.51034432       0.84470380       8.17104648      -0.98775748      -9.33301322
C        6.75952145       4.02338482       1.53833570      -5.64659911       0.88996381      -0.29035184       1.39985873      -0.10701632
C        2.59569274       6.96479740       5.79340803      -3.88991793       0.91433662       3.29328114      -2.51740115      -5.38493221
C        7.52926614       8.86499142       1.31160893      -5.71531693       0.94158821       3.94473832       1.13222920       1.43810963
C        6.97185172       5.56517243       1.94737952      -6.80423004       0.90298999       1.55692986      -1.05676202      -0.73116659
C        6.52609902       2.47985900       1.51272575      -6.43245016       0.92504115      -2.38126617       3.37889615      -0.26877701
C        4.46634473       2.57671249       6.33818622      -6.22078843       0.87809112       0.56389297       2.00260839      -2.97253389
C        0.99316930       3.57744997       0.93892941      -5.04764682       0.90185859      -1.93035217      -0.73448846       1.03367089
C        9.78054603       4.26573387       0.52813210      -7.80893327       0.83522129       0.11876817      -0.66716186      -1.38049679
C        8.89458166       9.10947066       2.01659945      -6.94477694       0.82243138      -2.54609976      -1.40109161      -0.72806596
C        7.69829841       6.50691225       1.24290437      -6.83696203       0.87983034       0.05385925      -1.60464653       0.81021483
C        6.48420067       4.13477676       7.08272076      -6.06484341       0.86253052      -2.92433987       6.98875929      -0.59646736
C        5.18338087       3.97977245       5.20711051      -5.04685758       0.91762296      -1.02987168       0.86460025      -2.04990216
50
Lattice="9.9905032156 0.0 0.0 0.0 9.9905032156 0.0 0.0 0.0 9.9905032156" Properties=species:S:1:pos:R:3:local_energy:R:1:hirshfeld_v:R:1:forces:R:3 energy_soap=-248.65497356 energy_2b=6.40202421 energy_3b=1.42419994 energy_core_pot=0.0 energy_vdw=0.0 energy_exp=0.0 energy_xps=0.0 virial="-18.67434252 4.00234367 7.39708829 4.00234367 -26.1635074 -7.74213716 7.39708829 -7.74213716 2.5119746" volume=997.153669 config_type=iter_7 energy=-240.828749 stress="0.01872765 -0.00401377 -0.0074182 -0.00401377 0.02623819 0.00776424 -0.0074182 0.00776424 -0.00251914" pbc="T T T"
H        6.89265186       3.23725614       8.03840510      -2.64192845       0.73192157      -0.19869038       1.73237931      -1.33335970
H        4.44764441       2.06828479       6.98632849      -2.36531167       0.83610144       1.36705036      -0.33747767       1.97636187
H        1.28730278       6.82396974       5.85221024      -3.20850891       0.68406963       4.17892381       0.88320407      -0.42925861
H        1.77034629       3.58370170       0.79423135      -3.93667403       0.69615779      -1.64272793       0.05340522      -0.15481030
H        6.87378463       3.19606880       5.97466659      -2.82962659       0.76174900       0.13791140       2.40352367      -0.71749937
H        8.95321839       7.11101191       9.50848621      -4.15027825       0.69758750       0.36173088      -0.56532961       0.60961417
H        0.94969557       7.56471372       9.19344553      -3.15162011       0.71615810       3.81273674       0.03026125      -1.16951107
H        5.39815761       2.05230948       3.59929741      -3.59470509       0.73922685       2.26057021      -0.21874625      -2.56788143
H        7.29247423       4.30802806       2.90054672      -3.13249437       0.69985217       0.04879149       2.49778385      -1.65222917
H        6.37288260       5.40610226       0.13323804      -2.97144677       0.71524221      -0.59906097      -2.26297027       0.54512463
H        3.18592650       1.47809075       5.52107045      -4.13142586       0.63061966      -1.73511336      -3.21221841      -1.41642171
H        1.79385513       7.62978276       8.82959718      -2.65959348       0.71008185      -3.68571259       0.13060401       1.66567304
H        0.16280158       5.07551518       4.31647371      -2.95646736       0.74559920      -0.49031790       0.71085969      -3.52732213
H        1.28334653       3.36116754       7.62109603      -3.83935222       0.69976259       1.78158416      -1.77899009      -1.21729663
H        8.37228136       3.66960429       0.14118573      -3.80568833       0.74543641       2.53556865       2.12922574       0.13331163
H        9.75256576       1.46193175       0.45395130      -3.24027442       0.64610527       0.13541582      -1.22328332       2.24535779
H        8.76078341       3.87362686       1.63097114      -3.98863654       0.81100839       1.43500834       0.06404671      -0.26660246
H        6.92324072       3.28093356       4.88361350      -2.64325565       0.74322855      -0.98255585      -0.45169453       1.15745225
H        3.26169671       6.52528278       7.96886271      -2.78008447       0.68583011       2.84491309      -0.35890077      -1.20821438
H        4.35242854       2.90715152       4.01913330      -3.19224021       0.69016087       2.32397903       1.61922940       1.87290990
H        0.02984604       9.67288342       2.06898958      -3.88053316       0.68473768      -3.71433297      -2.49288153       0.41260515
H        9.76217354       1.77499742       9.85431638      -2.96117303       0.62745935       0.70113814       0.79686609      -2.48610177
H        9.96459128       5.30025611       3.43168774      -3.11816887       0.75518512       0.78606312      -0.79954225       3.45932310
H        7.51189254       3.12969566       0.82886943      -2.76806309       0.67758630      -1.99582464      -1.21210505       0.67670888
H        4.46376535       8.06570550       6.01769774      -3.45171100       0.68150629       0.52473559      -2.19728898      -0.89993046
C        5.74940942       5.24506153       7.24648517      -6.94955080       0.89704831       0.03864120       2.13479371       0.23367192
C        6.39516401       1.85779306       2.72963395      -6.25629361       0.87058185      -3.10939591      -3.53402090       4.36178076
C        9.86740776       5.58022284       1.02400638      -6.12226838       0.87697461      -0.15609485       0.69446560      -1.75461055
C        2.11371288       3.96951466       5.94912956      -6.61767391       0.81076321       0.64572829      12.87957673     -11.57508254
C        4.64357617       6.67414027       5.85149904      -6.75004508       0.89825576       0.53245288       5.01243747       4.97501928
C        7.98897124       0.43159376       2.61830020      -6.67045614       0.90991688      -1.71834325      -2.38015639       1.78004632
C        2.11381993       3.14477476       6.73939117      -6.02216784       0.82317463      -0.64825909     -11.85550878      12.17456071
C        6.70116305       0.09705646       3.07316493      -6.24372122       0.95939145       1.67167439       4.71012402      -1.06692005
C        3.82376573       5.61145057       5.66759789      -6.67613419       0.86273158       2.17942984      -0.74186952      -1.19471506
C        3.35182023       2.26585186       6.14323517      -7.87098530       0.83810214      -7.48071584       2.66191593       2.08466887
C        9.28121788       6.59193974       0.45347013      -6.75163040       0.85071315      -3.10697910       0.29785062       0.72766089
C        2.66765735       5.14509771       5.38734542      -6.90327490       0.84626970      -5.20510551      -0.95956340      -1.63462399
C        4.90694410       6.51371117       7.42381084      -5.95697068       0.94439557       1.92648428      -4.55510759      -1.97691226
C        6.51768105       4.20089886       1.10375709      -5.61623890       0.95424711       1.54610413       1.88736110       0.79236549
C        2.72724573       7.00236824       5.51813910      -4.19654925       0.95129964      -4.38684775      -2.16485259       0.14569363
C        7.87284963       8.31642522       1.72331522      -5.85454704       0.91833103       1.13324172      -6.08067228      -1.04312597
C        7.34817558       5.24861369       1.72795403      -6.07226668       0.90160219      -1.95336395      -0.81207029       1.60759220
C        6.72910894       2.50118117       1.70482475      -6.41850803       0.88158037       1.25852594       5.00743163      -4.29532761
C        4.55569710       2.76039759       6.13908175      -6.11613265       0.82596292       1.94036004      -1.48968133       4.91719489
C        0.66534795       3.47240457       0.69414720      -5.77434537       0.84593756      -1.37569281       0.52609959      -1.08322562
C        9.42304413       4.19256635       0.73330539      -7.27148318       0.86778806       1.72347846      -4.13265761       1.75598182
C        8.74966590       9.27556016       2.15385175      -7.04130753       0.87878145       1.88512087       1.80854162      -1.31872633
C        7.81296595       6.58057984       1.37882002      -7.45171439       0.89436399       2.04493794       4.21413572       1.22055428
C        6.66536008       4.40240231       6.79237729      -5.75102281       0.90406487      -2.32767264      -1.13825633       2.87885176