50
Lattice="9.9905032156 0.0 0.0 0.0 9.9905032156 0.0 0.0 0.0 9.9905032156" Properties=species:S:1:pos:R:3:velocities:R:3:local_energy:R:1:fix_atoms:S:3:forces:R:3 temperature=5772.80206276 pressure=39839.26297793 time_step=0.5 time=0.0 energy_soap=-350.80517385 energy_2b=93.72512874 energy_3b=1.61643975 energy_core_pot=0.0 energy_vdw=0.0 energy_exp=0.0 energy_xps=0.0 virial="-4.16607585 -3.12413641 2.96701712 -3.12413641 13.04697234 0.52988174 2.96701712 0.52988174 -7.6229165" volume=997.153669 step=0 config_type=iter_5 energy=-255.463605 stress="0.00417797 0.00313305 -0.00297549 0.00313305 -0.01308421 -0.00053139 -0.00297549 -0.00053139 0.00764468" pbc="T T T"
H        6.15478596       1.77245008       5.89212930      -0.00467592       0.00099828      -0.03655942      -2.87788119 F F F       0.36413765      -0.00579412       0.79967249
H        5.49950805       2.12625440       6.00255808      -0.05540200      -0.02102505       0.02858405      -2.73467384 F F F       0.10882118       0.02404613       0.49170361
H        4.08482775       5.07263041       8.68531408       0.43297543      -0.17225127      -0.05745233      -0.58338971 F F F       0.92354016       0.55795595      -0.32456137
H        6.08423855       6.26665164       9.62921386      -0.13805992      -0.05497875      -0.05498816      -2.68052243 F F F       0.96855253      -0.60597811       0.78295725
H        9.51248771       4.95310217       5.52197263       0.02687585      -0.04905080       0.03558208      -2.98010490 F F F       0.48913265       0.10788485      -1.12616909
H        4.86689080       4.35673195       1.52215048       0.06290684       0.05726206       0.09404446      -3.14674427 F F F      -1.81923865      -0.20526877       1.98366452
H        9.42117451       4.89330417       6.21139658      -0.08667162      -0.03061009       0.02573979      -2.95260471 F F F      -0.14623794      -0.10445712       0.86035322
H        3.80695613       4.24227644       4.27771905      -0.03319366       0.06736542      -0.05615915      -2.62316031 F F F      -0.81404993      -0.48894627       0.18046649
H        5.72247302       1.32907735       2.24693448       0.01287836       0.05783965       0.09880004      -3.01467164 F F F       0.20182056      -1.25355630      -0.24321907
H        3.12962386       5.20486372       5.96401404      -0.07735042      -0.10822388      -0.07240289      -2.62656671 F F F      -0.35043695       1.85302364       0.98394688
H        5.75974701       8.63255861       3.64474689      -0.07312754      -0.01585293       0.05667118      -2.49205373 F F F       0.88525773      -0.17053334       1.06720878
H        1.33002883       0.12153550       7.02791652       0.03121977      -0.00994257       0.02907761      -2.83713745 F F F      -0.32607335       2.87976953      -2.07810524
H        7.66859177       5.07951860       3.61483058       0.08502285      -0.13988250       0.07875602      -3.24259324 F F F       2.11351545      -2.54425787       2.01716432
H        9.12016629       0.63501629       1.02731411      -0.05043663      -0.00065752       0.02044364      -2.67394226 F F F       1.89029627      -0.66456543      -1.56014891
H        5.70271495       2.79891634       1.88662625      -0.00283732       0.13097331      -0.00933233      -2.51541552 F F F      -0.99646207      -0.44080679       0.84745871
H        7.87231787       9.44408913       2.93661513      -0.05792866       0.09003325       0.04689892      -2.47364825 F F F       1.27404423       0.79415361      -0.82816566
H        7.50315521       3.85075401       1.26164567       0.04246165      -0.02741001      -0.04596068      -3.03963536 F F F       0.39248019       0.51920447       0.28641968
H        1.18655677       0.87607042       6.44912518      -0.02345522      -0.04533797      -0.01423975      -2.73472266 F F F       0.70104258      -2.89468388       1.93322969
H        5.28243819       1.85367059       4.10119323      -0.00344284      -0.06078874       0.01725753      -2.67891556 F F F      -0.51226224      -0.32825870      -2.83452563
H        6.80809393       6.32020156       9.94222712       0.08521699      -0.05083870       0.03013319      -2.83978567 F F F      -1.35327475      -0.76511722       0.22600879
H        2.05159312       9.39558283       9.59012258       0.00222862       0.01132836       0.06089769      -3.02955656 F F F      -1.33580040       0.52026342      -0.50875438
H        0.44759563       9.09926268       8.96996203       0.04161761      -0.01312531      -0.03294728      -3.52379395 F F F      -0.26335238      -0.33817277      -0.11623530
H        9.61751831       0.63105145       8.14214643       0.02678222      -0.00311406      -0.06107641      -3.33137180 F F F       0.46221561      -0.17351121       1.08902869
H        3.59557122       6.84704752       5.05469444      -0.10309463       0.09218477      -0.05251023      -3.36984104 F F F      -1.52772798       0.19508878       0.69088425
H        8.06591174       4.08168920       1.75845476      -0.06042547      -0.08764255       0.03999232      -3.01741592 F F F      -0.49771235       0.04370991      -0.42925437
C        3.43016391       2.40085545       3.13605679       0.00947987       0.02122002      -0.00154547      -6.39676817 F F F       0.83329857      -5.67713781      -2.87299233
C        4.86339801       1.80543291       2.70385305       0.00424803       0.01264646       0.00355393      -8.07660725 F F F       0.61025727       1.81571197       2.24045944
C        3.62713477       9.91872917       1.76208432       0.00213467       0.01025981       0.00158214      -8.40546450 F F F      -0.83517590       1.01082613      -2.81066526
C        7.23829750       8.81333824       2.31101874       0.01399052       0.01285004       0.00669050      -9.31678198 F F F       2.67211608       3.91644602      -1.78468299
C        8.88181532       0.10145597       0.05589170      -0.02985874      -0.01674078      -0.02331824      -7.25529320 F F F       1.58524255       1.90988725       2.76769266
C        3.93368937       9.00409538       0.49711405       0.00399031      -0.01400449      -0.03988095      -7.72996464 F F F       0.12871244       2.20118937       2.91704515
C        3.48291635       1.27365654       2.17566118      -0.00621191      -0.00633671       0.00374277      -6.79029625 F F F       0.85042122      -2.83577572      -0.48090869
C        2.09749917       5.50163769       4.42499745       0.02837001      -0.01106615      -0.01699512      -6.59837312 F F F      -0.83018477      -0.32722180      -1.10292859
C        7.95107147       9.10892626       8.41179388       0.01926858      -0.01182032      -0.02374495      -9.62313185 F F F      -1.37874528      -1.11960798      -0.31589356
C        6.54862202       6.85444283       3.08928679      -0.01168635       0.01353609      -0.01950998      -7.00960695 F F F       0.40035297      -5.04273177      -0.24734838
C        7.54250379       0.07947043       0.09392797       0.01571097      -0.03610438       0.03631099      -7.93950202 F F F      -1.91966692      -1.43173295      -0.91102208
C        6.75232173       8.39918776       8.16307537       0.00614688       0.00420841      -0.00859733      -5.10037667 F F F       0.50847577      -0.64689230       0.29636903
C        6.48957810       7.07152287       7.90485936       0.01490299       0.00511039       0.01103786      -8.05073765 F F F       0.47334126       0.97083827      -1.69002752
C        3.84207929       4.09916953       2.23025149      -0.00266604      -0.00043958       0.02173419      -7.68351560 F F F      -0.60319227      -0.27644249      -0.94798181
C        2.96437685       8.94578953       9.31227736      -0.00203089       0.00319709       0.00803049      -6.49398117 F F F       4.65047874      -1.40546295       1.86999091
C        4.06881220       8.23600606       8.68741363       0.00018433      -0.00231738       0.01254596      -7.49128285 F F F      -0.74769415       1.25018568      -1.04770555
C        9.65066181       9.82950658       8.92710367      -0.01118881       0.01540911      -0.00882155      -7.28848843 F F F      -1.77499054       0.80648628      -1.30549982
C        6.21132557       6.01123742       7.25743449      -0.01457029      -0.00439147      -0.00400651      -6.18475545 F F F      -0.67493068       0.01981272       0.72970543
C        7.03242835       5.68930438       3.10674442       0.00113669      -0.02339161       0.00234559      -7.65847933 F F F      -1.40011092       0.32699013      -1.62090364
C        5.43072991       8.75866891       0.26203502      -0.03707841       0.01684860      -0.00338912      -9.05792126 F F F       0.64513189       1.28865637       0.11811518
C        2.65447017       6.25662927       5.35782345       0.02033520       0.03069812       0.01286146      -6.02547673 F F F       2.89880854      -2.32451879      -0.45469288
C        6.76939337       9.37557268       1.03732962       0.00427671       0.00867356      -0.00392347      -7.78927937 F F F      -3.14913461      -2.09004672      -1.27376475
C        3.29607044       3.56632975       3.55711285      -0.01360717      -0.00394660      -0.02046734      -6.28138806 F F F       1.11520243       7.80277224       0.57163980
C        5.44855853       8.82532160       8.53350674       0.00237546       0.00610787       0.00323537      -8.43794308 F F F      -0.46511866      -0.13062169       2.09115603
C        6.70543080       8.10095976       3.33858647      -0.02438741       0.00198168       0.03629543      -6.75804109 F F F      -4.42512280       3.47719816       1.07381590
50
Lattice="9.9905032156 0.0 0.0 0.0 9.9905032156 0.0 0.0 0.0 9.9905032156" Properties=species:S:1:pos:R:3:velocities:R:3:local_energy:R:1:fix_atoms:S:3:forces:R:3 temperature=4986.42428156 pressure=-6549.80457845 time_step=0.5 time=20.0 energy_soap=-343.5692445 energy_2b=89.56797252 energy_3b=-0.31517481 energy_core_pot=0.0 energy_vdw=0.0 energy_exp=0.0 energy_xps=0.0 virial="-34.82486336 -3.70366957 3.78745698 -3.70366957 -17.30139471 -1.58801136 3.78745698 -1.58801136 -23.2684411" volume=997.153669 step=40 config_type=iter_5 energy=-254.316447 stress="0.03492427 0.00371424 -0.00379827 0.00371424 0.01735078 0.00159254 -0.00379827 0.00159254 0.02333486" pbc="T T T"
H        5.29745521       2.04106224       6.05744107      -0.05764257       0.00471140       0.02438415      -2.98560179 F F F       0.25828845      -0.85953062       1.26846043
H        5.50669502       1.60146813       6.70955634       0.01631019      -0.00990454       0.02106842      -2.92757569 F F F      -0.45324791       1.01443760      -1.37822193
H        2.78255841       3.47662521       6.47624667       0.40387704      -0.03973041      -0.14476520      -0.78179846 F F F       0.57673329       0.54776582      -1.03601042
H        5.74139423       4.91570962       9.14512401       0.07936444      -0.11605127       0.02611052      -2.76586391 F F F       1.22453743      -1.48653001       2.23644938
H        9.14252608       4.04249293       6.68367886      -0.07776753      -0.04564818       0.02412050      -2.94800380 F F F       1.53511391      -0.28511107       3.65895876
H        4.21081535       5.32151244       3.11935229      -0.02344609       0.04199445      -0.05923117      -1.99992288 F F F       0.40256668       0.15871877      -1.52003181
H        8.91611659       4.08308777       6.08774444       0.06402454      -0.04728656       0.01168506      -2.93639100 F F F      -1.37772955       0.26374079      -3.83491298
H        3.63774966       4.35862890       4.94742607      -0.02108971      -0.01457078       0.06894050      -1.70586640 F F F      -2.12935536       0.45087144       0.66951221
H        5.74624679       2.22648061       2.38600670      -0.09489676       0.10727812      -0.04866100      -3.31983875 F F F       0.04204026       0.49813775      -0.16829038
H        0.97144293       4.77863929       4.54371136      -0.05481173       0.01783876      -0.10015712      -1.79170778 F F F       2.13279767       0.73454390      -0.13934106
H        6.16001008       8.26431614       4.48146545       0.06184942      -0.00661978       0.00156350      -2.90172738 F F F      -0.39083675       0.36007638       0.60592827
H        1.85397685       0.28810923       6.78358385      -0.02355551      -0.06222589      -0.03036455      -3.06848668 F F F      -0.22263756      -0.15114723      -0.13487486
H        7.49387666       4.53683122       3.96519424      -0.00204970      -0.03000179       0.02036485      -2.56658002 F F F      -1.37090034       2.59714759      -2.55356681
H        9.68990083       0.36254473       0.40441304      -0.04368090      -0.02567801      -0.00450220      -2.79371605 F F F       1.93683432       0.93611740       2.01381224
H        5.06891024       4.55711275       2.43337872      -0.07638330       0.07736880       0.00426375      -3.22325933 F F F       1.57920329      -0.90047924      -1.03329112
H        7.54810061       0.08339277       3.06773970       0.00574190      -0.06390064       0.01192846      -3.27527060 F F F      -0.14990003      -0.42001725      -0.12717083
H        7.95971771       3.56627400       1.71517012      -0.04491219      -0.01445849       0.05592017      -3.16001486 F F F      -0.09046909       0.42032652       0.28810738
H        1.61790123       9.55487494       6.69877407       0.05995625       0.00873839       0.04230596      -2.93367219 F F F       0.09206143       0.24643489      -0.06392077
H        5.41622540       0.83172610       3.76552525       0.02257530       0.02186650      -0.00734171      -2.87423697 F F F      -0.80143268       1.60120186      -0.91912829
H        6.03308317       4.39355311       9.96945672      -0.11092792      -0.05669516      -0.10062653      -2.76330413 F F F      -1.25491160       1.87805697      -3.05609218
H        1.71187947       9.20027178       9.04677500       0.03348680      -0.03657629      -0.03798708      -3.53979413 F F F       1.28223053      -0.26443242       1.12885655
H        0.12980085       9.24521049       8.33717830      -0.03007493       0.03488163      -0.07443370      -3.01793975 F F F       1.92489173      -1.26233823      -0.06672551
H        9.50064996       0.90871222       8.16761973      -0.00236286       0.00186019      -0.05864377      -3.40284132 F F F      -0.06158362       1.90138397      -1.74053340
H        1.80217922       7.29260208       5.19716817      -0.02363195      -0.00670471       0.07691282      -2.94853314 F F F       2.28315879      -0.88186297       0.66170235
H        7.41501948       3.40034689       1.20935793       0.02316334       0.03276549      -0.03269938      -2.90563416 F F F      -0.13896852       0.16201217       0.25451945
C        3.58528882       2.47462004       2.95936547       0.00489410       0.01375109      -0.00917783      -6.97163677 F F F       0.30594713       1.38993161      -0.22286660
C        4.89467910       1.91360593       2.97926653       0.00107779      -0.01661030       0.02100903      -7.37380964 F F F      -1.02227252      -2.16763397       1.18409540
C        3.60692443       0.04904943       1.36766248      -0.00101195       0.00607995      -0.02986004      -9.14851112 F F F       0.10249764       2.75147965       2.46073618
C        7.14586733       9.13314682       2.68992620      -0.04273720       0.00464804       0.02648223      -7.14779520 F F F      -4.79105811      -3.10833557      -0.87711610
C        8.87715627       0.04511224       9.87981728       0.00293029      -0.00337645       0.00602848      -7.70808593 F F F      -3.76408312      -3.18126367      -2.86020844
C        3.81681552       9.03008499       0.49555238      -0.01201810       0.01913050       0.03353944      -6.11216026 F F F      -0.89618537       1.53273966      -0.93018512
C        3.53885483       1.15920903       2.29758885       0.00861706      -0.00298597       0.00351052      -7.85364331 F F F       0.67566137      -0.59526846      -1.36614064
C        2.66273414       5.47458871       4.42998670       0.02442898       0.00040020       0.02376274      -7.71270330 F F F       0.40494795      -1.49943685       1.98372623
C        8.16133369       8.87576858       7.96083239       0.00825091      -0.00040866      -0.02091978      -9.69515901 F F F       0.14268651       2.76261240       0.16457522
C        6.65174042       6.72990145       3.05580056       0.00576846       0.01666063       0.02161058      -6.65239494 F F F      -3.35934749      11.80769341       1.40699802
C        7.63941307       9.45722101       0.36444879       0.01502726      -0.02264845       0.00156687      -9.37942335 F F F       2.79219870       1.59983254      -0.81339328
C        6.89499777       8.35112182       8.16747631       0.00615369      -0.00691811       0.01043408      -4.72379525 F F F       0.78277773       2.06414390       1.41197012
C        6.71261539       7.09643654       7.84059744       0.00900853       0.00920411      -0.00688255      -8.16986598 F F F      -2.38624315      -3.76888322      -1.21259409
C        4.01265956       4.25277830       2.38733055       0.02161117       0.01465349       0.00959482      -6.35628629 F F F      -2.58331617      -0.12378345       2.99598661
C        2.78684070       8.98903108       9.44865652      -0.00951762      -0.00417179      -0.00554606      -6.71599487 F F F       4.11822914      -1.99377479      -1.37485113
C        4.08463433       8.25840832       8.68205885       0.00314504       0.00784774      -0.00649884      -7.61302504 F F F       0.21287099       2.09976482       0.57455074
C        9.33217927       9.91239017       8.40932544      -0.02909870      -0.01139515      -0.03007998      -7.09546898 F F F      -4.17250981      -2.72080243       3.57512953
C        6.04459257       6.01969690       7.51632018      -0.00903999      -0.00778789       0.02219992      -6.40622243 F F F       0.89774690       0.84472687       1.71725710
C        6.92270706       5.58678132       3.10499782      -0.01285361       0.00233621      -0.00655038      -7.23361529 F F F       3.95271491     -12.98569816       2.64856252
C        5.44274409       9.17233467       0.21343364       0.02312289       0.02041120      -0.00188189      -7.95511443 F F F      -1.84468640      -0.90549829      -0.32789604
C        2.87220533       6.58986178       5.19887131      -0.00398180       0.00504386      -0.03271118      -5.80604464 F F F      -3.72773205      -1.51655646      -2.63720038
C        6.26250491       9.05421731       1.33558397      -0.02350735      -0.02376746       0.02013476      -7.48024670 F F F       2.81970801       0.89047931       0.38909144
C        2.88908113       3.99670192       3.31615595      -0.02370928       0.01594058      -0.00850759      -6.69213780 F F F       1.65522350      -0.56463404      -0.46864218
C        5.64666997       8.91749145       8.75738240       0.01484396       0.00050615       0.01700809      -8.70485823 F F F      -1.32469949      -0.85215201       1.21869239
C        6.33982721       8.03874867       3.46610397       0.01160573      -0.01747473      -0.03220855      -8.07086685 F F F       4.18043840       0.98079241      -3.65447222
50
Lattice="9.9905032156 0.0 0.0 0.0 9.9905032156 0.0 0.0 0.0 9.9905032156" Properties=species:S:1:pos:R:3:velocities:R:3:local_energy:R:1:fix_atoms:S:3:forces:R:3 temperature=4021.88730271 pressure=15090.95571615 time_step=0.5 time=40.0 energy_soap=-343.15086508 energy_2b=89.40870459 energy_3b=3.30382892 energy_core_pot=0.0 energy_vdw=0.0 energy_exp=0.0 energy_xps=0.0 virial="3.03565799 2.6956608 2.92182243 2.6956608 -26.61159945 1.77513965 2.92182243 1.77513965 0.80545472" volume=997.153669 step=80 config_type=iter_5 energy=-250.438332 stress="-0.00304432 -0.00270336 -0.00293016 -0.00270336 0.02668756 -0.00178021 -0.00293016 -0.00178021 -0.00080775" pbc="T T T"
H        4.68784103       1.81058220       6.74924299       0.02091152       0.00351125       0.02042950      -3.05234687 F F F      -0.14888889      -0.04866324       0.02140456
H        5.34534630       2.05551575       6.50816802      -0.04941064       0.03275045      -0.00690597      -2.95700908 F F F       0.08110462       0.11593753      -0.15933934
H        9.94566853       3.89627493       2.49562829       0.27192372       0.05944217      -0.15822159      -0.58544551 F F F      -0.19312585       0.21774635      -0.14898928
H        5.64319031       3.19020818       9.07289445      -0.05208528       0.00804572      -0.13493341      -2.45153539 F F F       0.41311568       2.29736763      -3.82815957
H        8.76910183       3.05391999       6.15932739       0.01756657      -0.04369750      -0.07710407      -2.98493558 F F F       0.62066451       0.18334717       1.62751233
H        4.00727499       4.51768719       1.57853043       0.03953617      -0.10726497      -0.00619890      -2.60480201 F F F       0.91191106       1.03350618       1.21390342
H        9.13283923       3.08074245       6.93656201      -0.03758445      -0.05294220       0.06370363      -2.93726224 F F F      -0.95421081      -0.14317564      -2.08088209
H        1.94469260       4.98938434       5.67679556      -0.05927781      -0.00300221      -0.01089024      -2.09059931 F F F       1.80508552       0.00321432      -1.27374775
H        5.64600960       2.54978831       2.99357006       0.08419240      -0.08258769       0.06346702      -2.88413774 F F F       1.22038789       0.36780854      -0.88032119
H        2.44658784       5.21652188       2.85201818       0.01810191       0.00196661      -0.13328085      -1.50102140 F F F      -4.72074103       4.19000660      -2.57530477
H        6.04201013       8.19182044       4.38322813      -0.04783913       0.02077498       0.00145771      -2.85060592 F F F      -0.49271640       0.82813927       0.42482577
H        2.15940688       9.21565631       6.46106189       0.04886812      -0.09263269       0.01148879      -2.89001189 F F F      -3.44921797      -2.06674688      -1.69979981
H        7.55041660       3.25458219       4.41555488       0.04932140      -0.10942593       0.00166294      -0.93897531 F F F      -0.35588332       0.51891241      -0.58767059
H        9.67375601       0.58610431       9.96946567      -0.03117160      -0.01016782      -0.05109775      -2.73563455 F F F      -1.54769790      -1.66831090       0.29124989
H        6.01118341       4.97988643       2.33569107       0.04145691       0.02917632       0.04190176      -2.26388861 F F F      -6.84395111      -2.46206201      -5.76407144
H        7.37227605       0.03156471       2.79129077      -0.06599020       0.07205383      -0.03514533      -3.02557418 F F F      -1.80476963      -0.54025579       0.15002880
H        7.12893078       3.81032712       1.25264648       0.04293300       0.01830901      -0.09166078      -2.78665974 F F F       2.03929930       0.34939314       0.49813646
H        2.66794999       9.48414655       6.72739792       0.04472184       0.01378306      -0.00876049      -2.99907808 F F F       3.64157159       1.74379591       2.21788760
H        5.35867009       1.51908774       3.75121103      -0.03156172      -0.01255158       0.04058539      -2.55330796 F F F       4.16073157      -3.49872219       5.88699823
H        5.71028865       3.69876214       8.08878242       0.05228809      -0.05109699       0.02844704      -2.56779339 F F F      -0.21359549      -1.26987831       3.93508938
H        2.15858494       8.49861589       9.37210041       0.01897453      -0.04825085      -0.01732642      -2.80691510 F F F       0.93339593      -0.31595713      -1.51870942
H        0.06910693       9.64651193       8.16333161       0.00628673       0.00858238      -0.03767691      -2.92642217 F F F      -0.82926348      -0.34848299      -1.73351259
H        8.49673490       0.88246980       7.81083680      -0.01935903      -0.00781647       0.06555654      -2.99278960 F F F       1.01703471      -1.42088123       0.22252827
H        3.16774252       6.87669315       5.44536146       0.05419080       0.02387219      -0.09513249      -2.86213668 F F F       1.30542535       2.28707072       1.42531712
H        7.81084387       4.13023113       1.68165928      -0.00580953      -0.00061442       0.03911044      -2.94143321 F F F      -0.64684735      -1.01566687      -0.50976780
C        3.60338332       2.85009865       2.84048545      -0.00474258       0.01884902      -0.00324828      -9.58633798 F F F      -0.46929317      -1.22365581       0.65706526
C        4.70511944       1.81533307       3.12026432      -0.00106487       0.02047262       0.00618031      -6.13853156 F F F       0.68252004       7.48424561      -0.26241969
C        3.60030761       0.57270980       1.21547927       0.00116841       0.00667926      -0.01395460      -8.31177517 F F F       0.64115620      -1.80305614       1.56497061
C        6.30757723       9.56618805       2.63571644      -0.02369703       0.02899190      -0.00992844      -7.66336897 F F F       2.19695612      -1.40839047       2.12575119
C        8.85589302       9.76246865       9.56240670      -0.00035590      -0.01087036      -0.01255490      -7.33886100 F F F      -0.45684049       1.30150854       5.81528906
C        3.49565734       9.27915259       0.61189994      -0.01045238       0.02753091       0.00684658      -8.59277540 F F F       1.71881020       2.85231366       1.34985724
C        3.82374430       1.28112632       2.43684349       0.00954517       0.01062118       0.00693801      -6.20100291 F F F      -4.79525648      -5.29093970      -6.98010688
C        3.09862714       5.10918691       4.76877119       0.00501127      -0.01474666       0.00202182      -8.07026498 F F F      -4.91064113       0.19275240      -2.63145700
C        7.88426724       8.82941147       7.54903374      -0.03125694      -0.01072807      -0.01752138      -8.99558796 F F F       2.22329142       1.98873055       1.43531672
C        6.80682927       6.60702048       3.30438020       0.00803534       0.00491228       0.00274576      -7.07347023 F F F      -0.32567251      -2.58299977      -2.12650323
C        7.90384415       9.13630447       0.38244665       0.00321864      -0.01076175      -0.00259468      -8.78889455 F F F      -0.03456471       1.53916744      -2.29040766
C        6.97193941       8.23433933       8.40117883      -0.01147604      -0.01502671       0.00683611      -6.06266851 F F F      -2.21703173      -0.25600444       0.06806463
C        6.63962701       7.07822818       7.70769513      -0.01192836      -0.00220088       0.00160836      -7.63077566 F F F      -2.24069588      -3.25264024       1.06436856
C        3.95160871       4.54570363       2.76719791      -0.00358315       0.00512829       0.00433166      -6.69136530 F F F       5.12324466      -4.54127439      -5.17834353
C        3.26605080       8.69150465       9.34746359       0.01842217      -0.01142239       0.00899254      -6.80171536 F F F      -2.69492615       1.17796966       2.09580009
C        4.35916866       8.62701839       8.58150752       0.04441284       0.01580636      -0.01867786      -8.00534747 F F F       1.97480439      -1.00662256      -0.85624028
C        8.92952697       9.83600982       8.22668002      -0.00242478       0.00988420      -0.00704033      -7.68098168 F F F      -0.45711162       0.39808465      -3.55066937
C        5.96482748       5.97626164       8.11234438      -0.00041103       0.00191886       0.03032438      -6.34794495 F F F       1.29400235       2.18985660      -0.78631466
C        6.65110712       5.27284563       2.94564237      -0.01840923      -0.02509642      -0.01100080      -7.05136176 F F F       7.39758448       7.57203044       7.69518374
C        5.79969721       9.41436856       0.41433316       0.01461315       0.00312725       0.01704510      -8.13961279 F F F      -0.31887188      -0.84515200      -3.49448804
C        2.56924075       6.56214102       4.64164658      -0.00771536      -0.01595959      -0.01460413      -6.10992917 F F F      -0.02411371      -3.54849815       0.24490911
C        5.97324438       8.81197446       1.57698030      -0.01524156      -0.00253162      -0.00054588      -5.81742863 F F F       0.16562010       0.28833205       1.51125653
C        2.78689606       4.44164710       3.27883972       0.00318768       0.03542167       0.02489551      -5.97511599 F F F      -1.27781657      -0.31064337       8.33201549
C        5.73137494       8.74428869       9.07709884      -0.00036321      -0.01621734       0.00942069      -8.77671273 F F F       0.85246448      -0.06216774      -0.07628640
C        6.50702741       7.87290178       3.46719928       0.00092857      -0.02604838       0.02439950      -8.39617935 F F F       0.00356309      -0.19038942      -0.88121770
50
Lattice="9.9905032156 0.0 0.0 0.0 9.9905032156 0.0 0.0 0.0 9.9905032156" Properties=species:S:1:pos:R:3:velocities:R:3:local_energy:R:1:fix_atoms:S:3:forces:R:3 temperature=3668.92592015 pressure=1667.37991562 time_step=0.5 time=60.0 energy_soap=-341.47879048 energy_2b=88.81154156 energy_3b=1.90802483 energy_core_pot=0.0 energy_vdw=0.0 energy_exp=0.0 energy_xps=0.0 virial="-18.3655224 1.23809749 -4.3514194 1.23809749 -5.92674931 8.87952847 -4.3514194 8.87952847 -19.07055406" volume=997.153669 step=120 config_type=iter_5 energy=-250.759224 stress="0.01841795 -0.00124163 0.00436384 -0.00124163 0.00594367 -0.00890487 0.00436384 -0.00890487 0.01912499" pbc="T T T"
H        4.68585251       1.74350618       6.73800864      -0.00197043      -0.00008006      -0.00081955      -3.10623034 F F F       0.82445193      -1.03664349       1.80880251
H        4.44552627       2.11038168       6.21565877      -0.04359981       0.00557684       0.01075975      -2.85827856 F F F      -0.60727841       1.60118933      -1.64397261