      50
 Properties=species:S:1:pos:R:3:forces:R:3:local_energy:R:1:hirshfeld_v:R:1 Lattice="9.9905032156        0.0000000000    0.0000000000    0.0000000000    9.9905032156    0.0000000000    0.0000000000    0.0000000000    9.9905032156" energy=-238.668507 energy_soap=-247.22894779  energy_2b=7.93268077 energy_3b=0.62775986 energy_core_pot=0.00000000 energy_vdw=0.00000000 energy_exp=0.00000000 energy_xps=0.00000000 virial="-28.44493539         -4.59034133     -0.91811162     -4.59034133     -7.91114484      6.68831088     -0.91811162      6.68831088    -30.36712529" stress="0.02852613            0.00460344      0.00092073      0.00460344      0.00793373     -0.00670740      0.00092073     -0.00670740      0.03045381" volume=997.153669
 H              8.94027032       7.74801507       9.62937035      -0.76349638      -0.76521039      -0.66611216      -3.49555095       0.70563993
 H              1.68267380       2.72106450       5.82238667       0.52096599       0.09143144       1.97406606      -2.85094087       0.74631154
 H              1.12313999       5.39541836       7.74256000       0.32538146      -1.84478278      -1.30853781      -2.95430295       0.66709464
 H              6.05918211       4.09675422       7.82010387      -2.48728794       2.14674097       0.07727357      -3.65377628       0.73941670
 H              5.36395602       0.46603003       3.20442473       1.63948230       2.31703910       1.52628233      -3.98656488       0.71654217
 H              7.73796919       8.51538943       7.46714473       1.52328183      -2.98209104      -1.23784120      -2.36387960       0.85609428
 H              4.12305838       6.56819815       7.36120872      -2.78928929      -0.74806771       2.30634959      -3.01838290       0.74081610
 H              9.01516894       0.68677667       3.95841287       1.12831472       0.93414921       0.36988132      -2.90811814       0.62508221
 H              6.24283440       7.13147029       9.51931977       0.38630324       0.27589600      -1.20952827      -3.61476271       0.67647475
 H              1.31447387       4.70933410       7.30773950      -0.58531451       1.76218491       0.85199656      -2.80086923       0.66311533
 H              1.34090756       6.92416564       9.24448561      -1.19829478      -0.23649746       3.23890173      -3.31271725       0.72463035
 H              6.63359263       7.28220928       8.79599682      -1.55856587      -0.67843008       1.95766000      -2.42880033       0.67907057
 H              1.90188658       2.85147014       6.71692717      -0.30411854       0.19742990      -1.12189117      -2.83414297       0.73136172
 H              2.39831369       5.59466834       2.97903426      -0.68332147      -1.03407586       1.22146299      -4.78279894       0.69315872
 H              9.45319660       9.02784335       8.57248786       2.28414722      -0.98476755       2.49857331      -2.93626933       0.70794220
 H              6.92141344       2.69339147       7.12218732      -2.42862698      -1.56908613      -2.20466942      -3.00126446       0.65196618
 H              1.48602202       0.82282371       9.12361751      -2.06823049       2.33225586      -2.49402441      -2.91277235       0.75754291
 H              4.70889517       0.06256228       5.82313016      -1.86774370      -2.97194235       2.68111794      -3.71112238       0.73693611
 H              4.00146669       8.02627064       6.59120965       1.83948800      -0.29766079      -0.85907524      -3.40883023       0.78675545
 H              8.19791173       7.55233442       7.24330301      -1.44036935       3.12674352       0.15042990      -2.26089369       0.80991846
 H              2.52505901       9.13063365       6.73361226       3.66301539       0.34677881      -1.38077731      -3.34087555       0.73816167
 H              8.54439006       8.82414573       1.40241528       2.00899206      -0.36334246      -0.70070818      -3.75072393       0.69148690
 H              3.33299766       6.54665362       7.88921500       3.31520512       0.03891636      -1.57222837      -2.72772860       0.70051583
 H              1.00259896       1.38854295       8.50395141       1.95742325      -2.43822288       2.64086017      -2.70851266       0.74215901
 H              9.74746969       5.53606204       9.91457298       0.99644647       1.92051292       0.73400023      -2.67889516       0.69620295
 C              2.76291796       0.28611199       4.67161783      -1.00693434       3.24506129      -0.32399539      -7.13457356       0.88164215
 C              9.70560827       8.97573283       1.03673918      -3.34560756       6.39690269       3.32663589      -7.26924125       0.86139838
 C              4.34179618       6.93335023       0.46632957      -4.62950733      -1.90370529      -0.07295599      -4.11150357       0.95008069
 C              3.51214306       9.08492145       4.46513623      -0.22746593       6.04286265      10.72195314      -6.04317936       0.84750064
 C              9.55235527       4.44362998       4.95535908      -0.08343426       0.47113261       0.14435411      -4.71017661       0.94767887
 C              3.77680665       8.99114345       6.17716330      -3.19589817       2.77978913      -2.93841559      -6.37559195       0.86880336
 C              0.84724454       6.77033457       1.69685372       3.13618495      -0.57776802      -0.33357916      -6.47748757       0.88908781
 C              3.33469258       7.61476386       2.43019270      -2.75061978      -1.65798477       4.18500192      -7.78757937       0.85937760
 C              4.32954652       2.04776959       6.06892789       1.78868800      -0.48853860      -2.57462135      -6.75844751       0.88675604
 C              5.12201729       3.94171714       7.07446673       4.13778228      -2.18963126       1.02317166      -5.20906113       0.94458009
 C              0.36673934       1.70138748       3.86044340      -0.79987093      -0.30218390      -2.80580434      -6.33439957       0.89126559
 C              0.56971594       7.01286626       0.36180696       2.42255188      -3.23703173      -1.92001574      -6.94778856       0.86548710
 C              9.78324955       1.48997904       2.54925274       1.21985388      -6.16882001      -0.21042406      -6.48789568       0.90974211
 C              5.45751251       2.71800776       6.48782174      -1.58057726       3.15273714       2.63196088      -6.60478989       0.89410261
 C              5.48641367       1.38400200       4.07873248      -2.10347105      -4.17574362      -4.33873833      -5.87435040       0.92552184
 C              4.40486513       1.46944229       4.76294497       0.44985108       2.32689182       3.87949325      -6.56792949       0.88764196
 C              9.88712925       0.21426732       1.85536501      -0.78324618       0.42302860      -2.12425546      -6.49751928       0.88338398
 C              9.88710420       8.23617636       9.81322647      -2.83625127       2.12764449       1.16939783      -6.99344327       0.85269836
 C              3.17582583       6.82750269       1.30399436       5.70064566       2.66261417      -0.07024526      -6.91253128       0.89058395
 C              1.24155856       2.85169183       4.01226046      -0.14840846       0.10523358       0.66388739      -6.28800379       0.92058009
 C              2.02498104       6.54144353       2.66787635      -0.40787125       2.11925970      -6.93643148      -6.67817542       0.87379433
 C              8.83628760       3.93593521       4.05023232      -4.00361772       2.15797940       1.60505151      -6.04688501       0.90960497
 C              9.87020590       3.44045768       3.43926877       4.64051126      -2.62259463      -0.68919107      -7.28388939       0.88956720
 C              2.37351626       1.43555957       5.27494647       1.05697026      -2.39972932      -2.60274297      -5.61086805       0.90445686
 C              3.50479535       8.16425271       3.70726678      -0.06404552      -6.86330765      -8.88295353      -7.21969988       0.83061051
      50
 Properties=species:S:1:pos:R:3:forces:R:3:local_energy:R:1:hirshfeld_v:R:1 Lattice="9.9905032156        0.0000000000    0.0000000000    0.0000000000    9.9905032156    0.0000000000    0.0000000000    0.0000000000    9.9905032156" energy=-235.232530 energy_soap=-243.06870762  energy_2b=8.53485146 energy_3b=-0.69867412 energy_core_pot=0.00000000 energy_vdw=0.00000000 energy_exp=0.00000000 energy_xps=0.00000000 virial="-10.81685168         -2.73718580      9.95966763     -2.73718580    -24.76572630    -15.56567604      9.95966763    -15.56567604    -33.71282183" stress="0.01084773            0.00274500     -0.00998810      0.00274500      0.02483642      0.01561011     -0.00998810      0.01561011      0.03380905" volume=997.153669
 H              9.00125348       7.17089583       9.06219861      -0.67872271       1.72817337       2.45121885      -2.90463874       0.73622894
 H              1.95427245       3.99133142       7.46044133       0.11998363       0.18978121      -0.93742131      -2.97784892       0.63528538
 H              9.85074034       6.76441524       7.25910549       0.95635762      -0.26143809      -1.83503461      -2.17645234       0.67171592
 H              5.81348777       4.23179374       7.40749661       0.21621525       2.10073625       0.91461638      -2.65869850       0.87990736
 H              6.45240518       1.89357839       4.51879392       0.54954285      -1.25947081      -1.28556894      -4.20095142       0.73528767
 H              8.58550833       7.98038091       7.74416545      -4.42330894       1.38972606       0.27057705      -2.31783991       0.78282302
 H              2.35484297       6.97935793       8.60993969       0.47027865      -0.48288755      -0.19314978      -2.54794749       0.70473525
 H              8.72932290       1.11320999       3.86826456       0.68905106       0.47204912      -0.22207997      -2.65454196       0.59766692
 H              6.97598933       6.62301771       0.95927565      -2.36773697      -0.57078406       1.28323059      -3.01067165       0.66357122
 H              0.21537039       6.63991615       6.50330949      -0.54191626      -0.06089962       1.00054703      -3.47284702       0.66803929
 H              1.25656718       7.07905567       9.74072485      -1.40825970      -0.67473506       1.60398134      -3.09278088       0.74573399
 H              6.22918611       6.48697672       1.33308626       2.45760468       0.42453433      -1.40629429      -3.38848096       0.68112727
 H              1.88856810       4.12895218       6.70667764      -0.06506126      -0.21082738       0.78766736      -3.49915956       0.68366913
 H              1.52934724       5.82275836       2.99968038       0.82868508       0.42099011       0.21508961      -3.12147547       0.78811897
 H              0.26979336       8.27134484       8.94211017      -0.50455718       1.26738504       0.44154949      -3.46947456       0.76401716
 H              6.46374854       5.28505199       7.06036616       0.20411570       0.02002789       0.29884807      -2.35265380       0.82255268
 H              2.13602288       1.03126787       8.68167057      -1.93542849       1.05875469       1.31272550      -2.98294262       0.65607947
 H              3.96528760       9.01127049       7.37390385       1.84412562       0.29770146      -2.47822637      -3.22929919       0.80582263
 H              4.76344938       7.89562110       5.70585887      -0.70460177       0.75822990       2.54430699      -3.79481988       0.73299240
 H              7.60437360       8.26855290       7.97472110       3.08512205      -0.79454474      -1.24427400      -2.61266179       0.75687427
 H              2.83740812       8.22604657       7.33245249       0.52173828      -0.08674712      -2.49000833      -2.41863825       0.78804152
 H              8.45261500       8.95152124       1.48372374       2.68201523       1.00388362      -0.75298461      -3.04111493       0.65776967
 H              2.81129047       6.68209712       8.03911623      -0.00446761      -0.07751226       0.22555366      -3.09750075       0.67129211
 H              1.48833193       1.30836978       9.15172681       2.00077170      -0.92490927      -1.26360887      -3.39433468       0.68010672
 H              0.48936111       5.72521124       0.37999830      -1.57578721      -1.44716152      -0.91494091      -3.40806018       0.70129122
 C              2.75574751       0.34536754       4.65579962      -2.29536565       6.10026275       1.63005168      -7.08878199       0.88279298
 C              9.84454804       9.32213253       0.80684608      -5.34535228      -4.12757261      -3.41389407      -6.50155762       0.87434156
 C              4.34610914       6.40206435       0.20152864      -4.72118465       1.09810082       4.09945490      -4.58672006       0.95533200
 C              3.34881828       9.20131144       4.82225666       2.38832988      -4.58036849       1.85592681      -7.73268205       0.86799140
 C              0.07744407       4.50933178       4.81939642      -2.26436700      -2.56503170      -0.07767126      -4.43770049       0.94409490
 C              4.00096668       8.63290465       6.22623837      -2.64712266       0.48557770      -1.97648995      -6.38644835       0.86320394
 C              0.95018965       6.83350377       1.89927317      -5.34193468       2.12446602      -2.64927935      -6.37326641       0.89012203
 C              3.24484944       7.47506354       2.54381920       5.05646048       4.52370473       2.50265484      -7.42640148       0.84784628
 C              4.20701402       1.77865606       6.23333768       1.00927563       2.46801726       0.91376418      -6.80839618       0.92203557
 C              4.75158203       3.79824317       7.19114083       2.29361247      -3.15502572      -3.51032538      -4.85801735       0.94499870
 C              0.43405903       1.88974587       3.39718688      -0.73278751      -1.17154389      -0.28407016      -6.62939884       0.86775036
 C              0.20414659       6.72806240       0.60350036       4.34815618       3.67007158       0.14290908      -7.51395227       0.87700840
 C              0.28078273       0.69363217       2.71078517       0.41982059       5.65012245       0.60838481      -6.18288442       0.92270663
 C              5.32643725       2.93894035       6.24795725      -5.84197680      -0.56270648       3.05109811      -5.85051422       0.90767961
 C              5.49953490       1.34589981       4.20136466       0.37142733       1.63228536       0.11855421      -5.65887129       0.92880428
 C              4.54149712       1.85825134       4.89727188       0.89010229      -0.69998371      -0.60748860      -6.27685517       0.88489761
 C              0.16338278       0.58693972       0.94059430       0.38645726      -0.35866504       4.36839357      -6.07118296       0.93264842
 C              9.50836127       8.13043712       9.76832787       4.25510518      -2.95608617       1.77702508      -6.69449775       0.85606633
 C              3.22794343       6.69469194       1.15970426       5.82374912       1.03958491      -2.44926068      -7.37060945       0.86097411
 C              0.80781706       2.95407070       4.53900940       5.36629203      -3.05805615       2.08543844      -6.81138581       0.88923469
 C              2.22424445       6.61310925       2.16705266      -1.90144785      -5.73163907       0.30431010      -6.94315844       0.84399210
 C              8.66279905       3.84400825       4.18412298      -2.18991018       3.75157215       3.62648001      -5.28428660       0.95380428
 C              9.80275197       3.37204233       3.60564562      -0.35811233      -2.39841931      -8.30005653      -7.29350790       0.87002079
 C              2.38820566       1.68197774       5.07046500       0.70319781      -3.63426800      -0.77291003      -5.93796224       0.94160392
 C              3.72639318       8.27073870       3.55300977      -2.08818396      -1.82445494      -1.36931972      -6.68765550       0.87367381
      50
 Properties=species:S:1:pos:R:3:forces:R:3:local_energy:R:1:hirshfeld_v:R:1 Lattice="9.9905032156        0.0000000000    0.0000000000    0.0000000000    9.9905032156    0.0000000000    0.0000000000    0.0000000000    9.9905032156" energy=-240.410217 energy_soap=-257.84114709  energy_2b=17.19281527 energy_3b=0.23811501 energy_core_pot=0.00000000 energy_vdw=0.00000000 energy_exp=0.00000000 energy_xps=0.00000000 virial="-7.57046933           3.14004581     -2.88876887      3.14004581     -1.62585614      0.50812704     -2.88876887      0.50812704    -11.70982949" stress="0.00759208           -0.00314901      0.00289701     -0.00314901      0.00163050     -0.00050958      0.00289701     -0.00050958      0.01174325" volume=997.153669
 H              7.75853569       7.89885928       1.31174076       0.45761820      -0.07702562      -0.33337584      -1.95899919       0.78300932
 H              1.69499406       5.35378021       7.08393670      -0.12509319       0.00063842      -0.89437610      -3.11094953       0.59387044
 H              9.85072169       7.23621991       5.68968379       0.07655373      -0.08335287      -0.13297792      -3.12903406       0.56741048
 H              5.40924048       6.95180965       7.51997201      -0.80689488      -0.77746171       4.26172021      -2.53024701       0.76319323
 H              6.25818411       1.36647942       3.39500326      -2.58838451       1.08468206       4.10146892      -3.86367362       0.67299682
 H              6.43662332       8.59555987       7.17697787       3.54953356       2.92471087       0.17613100      -2.01867169       0.77235394
 H              2.20900148       7.61795103       9.69154311      -0.35618345      -0.61431790      -1.90118605      -3.45230160       0.72684718
 H              8.43023614       1.84187950       3.10215001       0.55314667      -0.12545613       0.04927250      -2.79252887       0.57212520
 H              5.44029353       6.06977151       2.30428513       3.37557972      -0.16118786       1.77108392      -3.55524471       0.72129527
 H              9.21231045       7.60004315       5.85002226      -0.16741855       0.10254543      -0.01451208      -3.06562802       0.56475880
 H              1.83971753       7.24742865       9.04996758       1.13432720       1.31951042       1.41550832      -2.85057804       0.70925555
 H              6.21344088       6.08152414       2.74024004      -2.65347883      -0.02760034      -1.60719485      -2.75934337       0.67548602
 H              1.74793789       5.06996344       7.75873049       0.13002336      -0.63190333       0.57197204      -2.91842345       0.59357846
 H              2.41573350       5.38054584       2.05879150      -1.14800531       1.06682992       0.70709813      -4.27400867       0.71811016
 H              9.19035231       7.79191555       9.13038761       1.31213976       1.24657884       1.92827549      -3.52378277       0.70885861
 H              5.13487738       6.96552732       8.49317201       0.63238448      -0.54083579      -2.77701651      -2.99164844       0.73342547
 H              2.05713642       1.30457584       8.80570569       0.65127917      -0.18368051       2.62235151      -3.12277899       0.65918620
 H              4.41216217       9.42122171       6.57355623      -2.42879265      -0.99491846       0.30893629      -3.28880564       0.73130622
 H              4.92260892       7.86305967       6.41945364      -1.60899232      -0.19893300      -2.20695999      -3.14817769       0.77142132
 H              7.26799034       9.31716643       7.18236121      -2.61938320      -2.52982718       0.07307929      -2.83728916       0.88111551
 H              3.06645356       7.30845997       5.89544333       1.72325220       2.63870488       1.63520187      -3.49649713       0.72842470
 H              9.30099978       9.25642581       2.01833420       0.08859579       0.14507241      -2.24412106      -3.19245113       0.68493652
 H              0.77338680       5.24432887       0.09719091       0.64664379       0.03921114       0.07223898      -2.28044682       0.73535591
 H              2.13430263       1.19525384       9.64405712      -0.32094018       0.41278258      -3.02393278      -3.31636201       0.67665671
 H              9.43034573       6.03921746       0.39035442       0.11779994       0.60876265       0.70846560      -3.47275901       0.71491653
 C              2.83109031       0.62474053       4.70623721       1.35168550      -2.92047511       1.56550412      -6.98918361       0.89044159
 C              9.60584541       9.37530296       0.46914204       3.34194423       2.33443221       4.92903231      -6.59225007       0.89306736
 C              4.23993396       6.01395082       0.23869931      -1.12223180       2.01845670       1.31055687      -5.23226635       0.95061724
 C              3.54627295       9.16648747       4.77384533      -2.00957923       0.33610456      -0.03260396      -7.55223581       0.87547058
 C              0.44766696       3.92899433       4.44832387       4.98701716       4.09248639       7.44729412      -6.98129500       0.89186084
 C              3.89868561       8.31415437       6.10872655       0.28806212       2.02503153      -2.28461749      -6.79545726       0.83770066
 C              0.76285629       6.98778757       1.91240319       4.57088438      -1.62092090      -0.35674653      -6.43233245       0.90494912
 C              3.54787384       7.52401472       2.61484502      -2.60298724      -0.03266571       0.87308242      -6.78777457       0.86104929
 C              3.96515926       1.62314423       6.18335472      -2.78471506      -1.19957447      -0.14963313      -6.42202211       0.90202401
 C              4.85123339       3.65209510       7.23465805       0.89621408       0.88046748      -2.17855668      -5.02139921       0.98412486
 C              0.33740635       1.95828780       2.99772043      -2.30649833       3.44500688       1.40200164      -7.46529519       0.84859146
 C              0.06496306       6.90047819       0.72014517       0.01028589      -5.77036272       4.27263017      -6.75770448       0.81433519
 C              0.69073077       0.92473279       2.48921131       0.76063496      -5.40912563      -7.00378702      -5.96571869       0.88618371
 C              4.63335804       2.87640746       6.13699535      -1.96339556       2.56017933       8.25600984      -7.70494581       0.86211754
 C              5.63152426       1.65618118       4.44878572       5.67149354      -2.50818930      -8.44055296      -7.10184839       0.84248672
 C              4.59666573       2.08803338       4.97244677       1.90397657      -0.62804650      -1.90047142      -5.55626443       0.85583537
 C              0.48849357       0.62933222       0.79616945      -1.95554706      -2.97377687       1.88862661      -6.23875099       0.93315963
 C              9.80674520       8.05569506       0.22479579      -5.17258983       4.81683178      -7.36027528      -7.36938768       0.84089926
 C              3.60058628       6.68445939       1.31858564       3.44643919       2.30867431      -0.92475998      -7.06625171       0.86576563
 C              0.97636499       2.66346070       5.07846567       5.25384606       1.49116267      -1.20241808      -5.84935042       0.91279044
 C              2.34690290       6.52217013       1.91229743      -3.77773146      -0.94658472       2.17270589      -7.77455921       0.85566923
 C              8.67446458       3.85578349       4.31624837       0.47335917       0.80339497      -0.85316670      -3.50252710       0.99566976
 C              9.80892484       2.92095916       3.83690308      -7.19791385      -6.04748467      -4.39941982      -6.63188079       0.87813702
 C              2.41378903       1.87420195       4.57662421      -3.68405922       0.92852122       1.66593853      -6.36427994       0.90445987
 C              3.35553083       8.36906898       3.68172399       1.99609526      -2.62707235      -3.96352435      -7.30460493       0.86495492
      50
 Properties=species:S:1:pos:R:3:forces:R:3:local_energy:R:1:hirshfeld_v:R:1 Lattice="9.9905032156        0.0000000000    0.0000000000    0.0000000000    9.9905032156    0.0000000000    0.0000000000    0.0000000000    9.9905032156" energy=-242.562236 energy_soap=-265.03631450  energy_2b=21.56932485 energy_3b=0.90475413 energy_core_pot=0.00000000 energy_vdw=0.00000000 energy_exp=0.00000000 energy_xps=0.00000000 virial="-1.24447847           3.53033254     -1.91404229      3.53033254     -3.88596519     -2.97438745     -1.91404229     -2.97438745     -2.77937346" stress="0.00124803           -0.00354041      0.00191951     -0.00354041      0.00389706      0.00298288      0.00191951      0.00298288      0.00278731" volume=997.153669
 H              8.48467763       7.37736782       2.43284065       0.97204603       1.42531013      -0.11202620      -2.13303379       0.78917789
 H              1.25172532       6.10104089       7.24103344      -0.31231719      -0.44448474      -0.34715173      -2.91141176       0.59342576
 H              8.81400323       8.47885646       4.99810108      -0.97443106       0.65561889       0.11238929      -2.80777633       0.56333259
 H              4.84090839       7.86287230       0.00322783       3.34895240      -0.18857803      -2.52987013      -3.10547756       0.72874420
 H              6.06727235       0.85794905       4.14641059       0.42556641       1.89845062      -0.94881359      -4.03319346       0.71001016
 H              5.86117335       9.91664301       6.57833924       0.96827914      -4.10773660      -0.96812690      -2.92883217       0.79272610
 H              1.98715575       7.93228377       9.66100302      -1.98577664       0.22558301      -1.06662902      -3.25069255       0.70968552
 H              7.46417264       2.80528194       3.11734755      -0.03633543      -0.60345532       0.55087350      -2.08641822       0.74644166
 H              5.26732548       5.67401240       3.68024019      -0.09001658      -0.03262857      -0.98770012      -3.07231100       0.64950708
 H              9.37227983       8.07052922       5.22386672       0.96320050      -0.80364234       0.65144370      -3.12688818       0.55918110
 H              2.62614839       7.93222183       9.90935669       1.47165615       0.14614061       0.73770617      -3.08944706       0.72735013
 H              5.31960349       5.62142781       2.91349286      -0.07597595       0.00220115       0.85397681      -3.41514005       0.69161370
 H              1.66989965       6.03705169       6.59358304      -0.63401715      -0.39543187       0.15672553      -2.87189963       0.60617337
 H              2.21228000       5.39898694       2.40554090       1.49204106      -2.28587062       0.91963063      -4.29465871       0.67075603
 H              8.76179281       8.02494253       9.49887745      -2.13875471      -1.56522679      -2.20485771      -3.96164422       0.63443161
 H              5.48748791       7.76066342       9.34151859      -2.08696493       0.70904045       2.19398365      -3.03436235       0.70675994
 H              2.08669807       1.27676919       9.29942568       3.62675052      -1.35153568       0.49021092      -3.18173575       0.72226664
 H              3.12974707       8.26598547       7.45128126       0.25145751      -0.68544462      -0.49886092      -3.33071359       0.67283057
 H              4.36433201       7.53683645       5.48279749       0.47189512      -0.45706580      -0.27698777      -3.66789085       0.72103563
 H              6.08806680       8.98035190       6.35839671      -0.95478408       3.97920420       1.29171321      -2.78629623       0.76162901
 H              3.00253558       7.50095712       7.31653385       0.85591415       1.49088860       0.44615269      -2.80053740       0.67798103
 H              9.01524867       8.89180411       2.76720284      -0.12626717      -0.80776867      -1.35109201      -1.91320513       0.84081181
 H              7.34734580       5.80752132       1.62038364       2.91611197      -1.62349031       1.74287431      -2.23221670       0.89394522
 H              2.93830834       0.96262386       9.37089275      -3.70733291       1.45746368      -0.41048205      -2.92771641       0.70780620
 H              8.26196825       5.37979806       2.23673490      -2.99639604       0.94261140      -1.93546826      -2.32694909       0.89885506
 C              3.30312767       0.75104106       4.99641740      -4.73844726      -2.43764143      -7.54901485      -7.26421101       0.86654497
 C              9.76757003       9.47379970       0.42758258       4.51355102       5.10818635       3.81478156      -7.12290746       0.85045549
 C              4.15322701       5.98551986       0.60678806       1.10125239       1.43231472       1.28929272      -5.11289477       0.96639854
 C              3.30798721       9.41688197       4.51406878       2.39824453      -6.07511105       1.78056693      -7.61484705       0.86613737
 C              0.71650973       3.49310614       4.62205870      -2.96315068      -2.62957628       0.06265674      -6.53846834       0.88923186
 C              3.83157656       8.47081010       5.48282319      -0.87110793       0.66708156      -0.28364932      -6.15368249       0.84326732
 C              1.09178127       6.94141497       1.67869826       5.56664390      -3.06253068       4.05902161      -7.52162920       0.83119541
 C              3.32474834       7.36720291       2.47356939       0.29005003       1.73996761       4.67655094      -6.35290712       0.85385569
 C              3.41359107       1.42040155       6.04606618       1.82766004       2.99649917       5.32986275      -6.41660273       0.86972801