50
Lattice="9.9905032156 0.0 0.0 0.0 9.9905032156 0.0 0.0 0.0 9.9905032156" Properties=species:S:1:pos:R:3:velocities:R:3:local_energy:R:1:fix_atoms:S:3:forces:R:3 temperature=4691.02940564 pressure=9317.75385429 time_step=0.5 time=0.0 energy_soap=-339.51002118 energy_2b=95.13149375 energy_3b=-0.45753213 energy_core_pot=0.0 energy_vdw=0.0 energy_exp=0.0 energy_xps=0.0 virial="-21.82025857 2.32566874 1.52242036 2.32566874 -6.02892137 9.06250291 1.52242036 9.06250291 -14.17692669" volume=997.153669 step=0 config_type=iter_8 energy=-244.83606 stress="0.02188254 -0.00233231 -0.00152677 -0.00233231 0.00604613 -0.00908837 -0.00152677 -0.00908837 0.01421739" pbc="T T T"
H        8.94027032       7.74801507       9.62937035      -0.05280422      -0.09046289       0.05223326      -2.30646724 F F F      -0.55378198      -0.20830223      -1.11178406
H        1.68267380       2.72106450       5.82238667       0.09445784       0.01209137       0.02205352      -2.30081241 F F F       0.26706959       0.61938154       2.45264692
H        1.12313999       5.39541836       7.74256000      -0.06813259       0.09349731      -0.01475244      -3.05692580 F F F       0.44593596      -0.99614384      -0.59353576
H        6.05918211       4.09675422       7.82010387       0.08687155      -0.05557208       0.06095063      -2.93559024 F F F      -2.00309000       1.35314457      -0.43323734
H        5.36395602       0.46603003       3.20442473       0.08562963      -0.01025734       0.07652777      -2.93811780 F F F       1.16932788       1.67141783       0.91106743
H        7.73796919       8.51538943       7.46714473      -0.07888000      -0.00269442       0.05345203      -2.50667080 F F F       2.00903359      -3.47555276      -1.02602815
H        4.12305838       6.56819815       7.36120872      -0.04871706      -0.04338536      -0.05815998      -2.48635976 F F F      -2.21838370      -0.76065926       2.14488676
H        9.01516894       0.68677667       3.95841287      -0.01436419       0.00670499       0.00555373      -1.35123299 F F F      -0.00527991       0.16122846       0.63032997
H        6.24283440       7.13147029       9.51931977      -0.02740903      -0.03468863       0.09583928      -3.10724977 F F F      -0.17459834       0.11453791      -1.04877404
H        1.31447387       4.70933410       7.30773950      -0.01703932       0.09034280      -0.04015457      -3.03809393 F F F      -0.57359513       1.46881463       0.58875919
H        1.34090756       6.92416564       9.24448561       0.07265056       0.05064996      -0.03166529      -2.52712998 F F F      -0.78725729      -0.33997952       2.64898191
H        6.63359263       7.28220928       8.79599682       0.16183376      -0.01784513       0.07877347      -2.96149038 F F F      -1.12298255      -0.49375597       1.53344964
H        1.90188658       2.85147014       6.71692717      -0.03158072       0.02788326      -0.06229913      -2.60393874 F F F      -0.70335118       0.11346971      -0.63224173
H        2.39831369       5.59466834       2.97903426       0.08382009       0.03824873       0.01220057      -2.85683764 F F F      -0.61911935      -1.54920876       1.04775260
H        9.45319660       9.02784335       8.57248786       0.08680663       0.07261499       0.08237254      -2.56324082 F F F       1.47931386      -0.85572146       2.11470442
H        6.92141344       2.69339147       7.12218732       0.03826360       0.16838605      -0.02380025      -1.97376988 F F F      -2.22027580      -0.59623614      -1.11754643
H        1.48602202       0.82282371       9.12361751      -0.02188359       0.03903750       0.08639783      -2.70438859 F F F      -2.26151394       2.27465090      -2.84316939
H        4.70889517       0.06256228       5.82313016      -0.01818410       0.04490571       0.01794141      -1.48684658 F F F      -0.38987292      -2.11301504       1.82623917
H        4.00146669       8.02627064       6.59120965       0.06974762       0.03287706      -0.03404831      -3.78665229 F F F       1.39412136       0.07915818      -0.61767749
H        8.19791173       7.55233442       7.24330301       0.08849704      -0.01198252       0.02931818      -2.46325698 F F F      -1.78113905       3.61121265       0.33846952
H        2.52505901       9.13063365       6.73361226      -0.04221986       0.00500497      -0.05122175      -2.91750050 F F F       3.01248487       0.01880413      -0.75931070
H        8.54439006       8.82414573       1.40241528      -0.10629466       0.01525296       0.01406424      -2.46457063 F F F       1.57843920      -0.41152220      -0.39604028
H        3.33299766       6.54665362       7.88921500      -0.10134621       0.10263582       0.07029535      -3.01286965 F F F       2.05088541      -0.45373932      -0.90247132
H        1.00259896       1.38854295       8.50395141       0.09094306      -0.03661940      -0.06936668      -2.74298779 F F F       2.25872376      -2.39504274       2.36499390
H        9.74746969       5.53606204       9.91457298      -0.01465973      -0.14355956       0.01601202      -1.89917165 F F F       0.91492912       1.62576263       0.47311224
C        2.76291796       0.28611199       4.67161783       0.00186923      -0.01020763       0.00606860      -7.75839136 F F F      -0.89568118       4.44602022       0.85413631
C        9.70560827       8.97573283       1.03673918       0.02185298      -0.01264935      -0.02935672      -8.45238796 F F F      -2.66090466       4.22300703       2.38396183
C        4.34179618       6.93335023       0.46632957      -0.01440419      -0.02699171      -0.00083765      -6.25012771 F F F      -3.11104473      -0.60315486       1.63355850
C        3.51214306       9.08492145       4.46513623      -0.00698765      -0.00729724       0.02203010      -5.89137539 F F F      -0.27477152       9.13196523      10.35875512
C        9.55235527       4.44362998       4.95535908       0.02448094       0.01092298      -0.00812556      -7.60482079 F F F       4.09471885       2.70863665       5.36178783
C        3.77680665       8.99114345       6.17716330       0.00505056      -0.02402398      -0.00473937      -6.73649419 F F F      -3.39301205       2.42529867      -2.65922177
C        0.84724454       6.77033457       1.69685372      -0.01151363       0.00833860      -0.00497909      -8.19637034 F F F       2.37361004      -0.43412133      -0.13170783
C        3.33469258       7.61476386       2.43019270       0.00173499      -0.00179700       0.00670131      -7.71204441 F F F      -1.50481065      -1.66047631       1.24584631
C        4.32954652       2.04776959       6.06892789       0.00716174      -0.00032987       0.02249193      -8.05153544 F F F       1.93332776       0.38007939      -1.48415291
C        5.12201729       3.94171714       7.07446673      -0.03666994      -0.01711521      -0.00885315      -6.90356056 F F F       3.59573907      -1.71375398       0.88111057
C        0.36673934       1.70138748       3.86044340       0.00810892       0.01275252      -0.01289253      -6.86778578 F F F       0.51870889       1.27895995      -1.70605439
C        0.56971594       7.01286626       0.36180696      -0.02443225      -0.01373556       0.02978013      -7.96434360 F F F       2.18591064      -2.57266900      -1.45017395
C        9.78324955       1.48997904       2.54925274       0.02146245      -0.03811284       0.00775149      -7.46095562 F F F       0.58733732      -4.24413282      -1.23880004
C        5.45751251       2.71800776       6.48782174      -0.01964164      -0.00226598      -0.02140113      -6.72453269 F F F      -0.99441150       1.65683061       1.73701651
C        5.48641367       1.38400200       4.07873248       0.00287599       0.00790907       0.00879114      -7.11404003 F F F      -0.02377828      -2.98279710      -3.47974000
C        4.40486513       1.46944229       4.76294497       0.00670100       0.02146950       0.00757389      -6.96946867 F F F      -1.47914225       1.18046625       3.44273243
C        9.88712925       0.21426732       1.85536501       0.01724769       0.04425509      -0.03511855      -7.97331418 F F F      -0.02792237       0.86166120      -1.20021396
C        9.88710420       8.23617636       9.81322647      -0.02542983      -0.00361850      -0.02457676      -7.48500124 F F F      -2.28657182       1.50633247       0.65295323
C        3.17582583       6.82750269       1.30399436       0.00891421      -0.01759994      -0.03276254      -6.54796947 F F F       4.21079819       1.48883705      -1.60206621
C        1.24155856       2.85169183       4.01226046      -0.02515813       0.00736466       0.01944471      -6.81418439 F F F      -2.64586002      -0.99518121       0.25654345
C        2.02498104       6.54144353       2.66787635       0.00765197       0.00263984      -0.00145435      -7.58002924 F F F      -0.25901365       2.62897752      -4.75061449
C        8.83628760       3.93593521       4.05023232      -0.00488560      -0.00758572       0.00511428      -3.22868418 F F F      -5.66905062      -2.05798985      -3.48523096
C        9.87020590       3.44045768       3.43926877      -0.00874279       0.00224037       0.00558674      -8.45284255 F F F       3.68700555      -1.84451869      -0.85906085
C        2.37351626       1.43555957       5.27494647      -0.00139707       0.02090099       0.00662626      -7.03978758 F F F       1.08163873      -4.19174042      -3.42882840
C        3.50479535       8.16425271       3.70726678       0.01757500       0.01484526       0.00446383      -8.06383935 F F F      -0.20884320      -9.07924054      -8.92611329
50
Lattice="9.9905032156 0.0 0.0 0.0 9.9905032156 0.0 0.0 0.0 9.9905032156" Properties=species:S:1:pos:R:3:velocities:R:3:local_energy:R:1:fix_atoms:S:3:forces:R:3 temperature=3890.35140744 pressure=-21171.19289221 time_step=0.5 time=20.0 energy_soap=-341.88068163 energy_2b=100.99306916 energy_3b=-2.23525368 energy_core_pot=0.0 energy_vdw=0.0 energy_exp=0.0 energy_xps=0.0 virial="-19.69423059 2.23612714 5.13727091 2.23612714 -30.88469356 -14.61572486 5.13727091 -14.61572486 -38.23123085" volume=997.153669 step=40 config_type=iter_8 energy=-243.122866 stress="0.01975045 -0.00224251 -0.00515194 -0.00224251 0.03097285 0.01465744 -0.00515194 0.01465744 0.03834036" pbc="T T T"
H        9.00125348       7.17089583       9.06219861       0.01554146       0.01291529       0.05937957      -2.49912750 F F F      -0.76100396       1.11873936       2.27781319
H        1.95427245       3.99133142       7.46044133      -0.07674881       0.11120561      -0.00843972      -2.94113842 F F F       0.01953253       0.25675956      -0.75966411
H        9.85074034       6.76441524       7.25910549      -0.02448203       0.04420105      -0.04598210      -2.64644119 F F F       1.59155656      -0.86620876      -1.64886843
H        5.81348777       4.23179374       7.40749661      -0.05747455       0.12375805      -0.05367396      -2.66771828 F F F       0.68798024       2.67541515       0.80652253
H        6.45240518       1.89357839       4.51879392       0.00326208       0.10526768       0.02567139      -2.92458821 F F F       1.47455525      -1.12556118      -1.72686175
H        8.58550833       7.98038091       7.74416545       0.02559747       0.08939017      -0.00779786      -2.33971483 F F F      -3.83568645       1.26042764       0.22820367
H        2.35484297       6.97935793       8.60993969      -0.00096759       0.06428306       0.09674121      -2.32303939 F F F      -0.09477950      -0.01403912       0.34501918
H        8.72932290       1.11320999       3.86826456      -0.01579294       0.02673363      -0.03099277      -1.58075891 F F F      -0.02552382       0.11747347      -0.18230245
H        6.97598933       6.62301771       0.95927565       0.03085680      -0.03617202       0.14513913      -2.95818385 F F F      -1.98940633      -0.28872196       0.95373105
H        0.21537039       6.63991615       6.50330949      -0.07653089       0.06471078      -0.05234169      -3.26206737 F F F      -0.19255697      -0.10551016       0.94698913
H        1.25656718       7.07905567       9.74072485       0.02719407      -0.00147474      -0.09831439      -2.01584584 F F F      -1.51990482      -0.51762301       1.02557513
H        6.22918611       6.48697672       1.33308626      -0.08761966      -0.02785597       0.03273578      -2.94069459 F F F       1.80683250       0.40764236      -1.40339980
H        1.88856810       4.12895218       6.70667764       0.05010883       0.04049670       0.11190093      -3.02570310 F F F      -0.20850532       0.03830848       0.57175410
H        1.52934724       5.82275836       2.99968038      -0.03398921      -0.00100799      -0.05082720      -1.84437378 F F F       1.24206232       0.28894534      -1.10324356
H        0.26979336       8.27134484       8.94211017      -0.11340569      -0.08560128      -0.06548046      -2.75743904 F F F      -0.17854471       1.72293620       0.98354907
H        6.46374854       5.28505199       7.06036616      -0.06925884       0.07544077       0.05885835      -2.08707936 F F F      -0.38343383      -0.67355644       0.45011130
H        2.13602288       1.03126787       8.68167057       0.04787165      -0.02992180       0.11667047      -2.89258273 F F F      -1.90873847       0.80320153       1.38212584
H        3.96528760       9.01127049       7.37390385      -0.02608166      -0.03534297      -0.05673108      -3.45020585 F F F       1.12472634       0.37421037      -2.05729039
H        4.76344938       7.89562110       5.70585887      -0.01259048      -0.04534854       0.01370202      -3.39737379 F F F      -1.02409510       0.63624105       2.25367860
H        7.60437360       8.26855290       7.97472110      -0.08776663      -0.01556054      -0.01527089      -2.66523985 F F F       2.37056555      -0.49653672      -0.96836626
H        2.83740812       8.22604657       7.33245249      -0.00163889      -0.03054957      -0.03044381      -2.39535720 F F F      -0.00803890       0.44797559      -1.72660381
H        8.45261500       8.95152124       1.48372374      -0.05147897      -0.00739338       0.05807747      -1.92265733 F F F       2.01825365       0.45554613      -0.83584926
H        2.81129047       6.68209712       8.03911623      -0.07456651      -0.10124226       0.03284935      -2.97117437 F F F       0.32151666      -1.20118150      -0.33151288
H        1.48833193       1.30836978       9.15172681      -0.01043014       0.03880889      -0.09826386      -2.97737853 F F F       1.65736350      -0.90466550      -1.16175133
H        0.48936111       5.72521124       0.37999830       0.02859247      -0.14640820      -0.06529991      -2.83047633 F F F      -1.59173879      -1.48099741      -1.12824071
C        2.75574751       0.34536754       4.65579962       0.00440043      -0.00134568      -0.00731186      -7.57807439 F F F      -1.03307753       4.88136932       1.41042044
C        9.84454804       9.32213253       0.80684608      -0.00079834       0.03451018      -0.00592153      -7.82017644 F F F      -3.14986572      -3.48451896      -1.74700998
C        4.34610914       6.40206435       0.20152864      -0.00727392      -0.02071902      -0.00254366      -5.28334217 F F F      -3.62745793       1.23217193       4.35649980
C        3.34881828       9.20131144       4.82225666      -0.00576475       0.00115070      -0.00655292      -7.13305430 F F F       2.82434089      -3.09316046       0.80521066
C        0.07744407       4.50933178       4.81939642       0.02002490      -0.01648395      -0.01718339      -6.88107322 F F F      -0.49478792      -3.15120604      -1.64213317
C        4.00096668       8.63290465       6.22623837       0.02003414      -0.02119049       0.02018136      -6.08238549 F F F      -1.40885444       0.22827076      -2.83910341
C        0.95018965       6.83350377       1.89927317      -0.01742565       0.01173443       0.01122468      -8.56372757 F F F      -4.44441260       1.57436144      -0.86748144
C        3.24484944       7.47506354       2.54381920       0.01420027       0.00517862       0.00643502      -7.95403469 F F F       3.31116629       2.45284735       1.98471013
C        4.20701402       1.77865606       6.23333768      -0.01220342      -0.01430049       0.00170403      -7.18566620 F F F       0.36491243       1.24007051      -1.62760320
C        4.75158203       3.79824317       7.19114083      -0.00031234      -0.00016856       0.01247504      -5.95038892 F F F       2.15544397      -2.32550654      -2.32638037
C        0.43405903       1.88974587       3.39718688      -0.00066745       0.00919142      -0.02549224      -8.04796413 F F F      -0.41696772       0.39552997       0.70175769
C        0.20414659       6.72806240       0.60350036      -0.01579979       0.00701189       0.01792372      -8.43146554 F F F       2.66083581       3.04673174      -0.47755864
C        0.28078273       0.69363217       2.71078517       0.02409963      -0.02823019      -0.00300442      -7.43017880 F F F      -0.09214149       4.06513085      -0.92386217
C        5.32643725       2.93894035       6.24795725      -0.01402027       0.00559204      -0.01092551      -7.14826880 F F F      -4.28614494      -0.76953622       1.67105902
C        5.49953490       1.34589981       4.20136466       0.00498252      -0.00318476       0.00808899      -7.05528282 F F F       1.60172693       1.07989685       0.10010940
C        4.54149712       1.85825134       4.89727188       0.00185994       0.01343240       0.00201730      -5.92681049 F F F      -3.34632280      -0.22912024       1.92393877
C        0.16338278       0.58693972       0.94059430       0.01343311      -0.00280509      -0.03398568      -6.15830088 F F F       0.55103189       0.46874212       3.45283703
C        9.50836127       8.13043712       9.76832787       0.01246945      -0.01156975       0.01118876      -7.60593809 F F F       2.98965688      -2.52514634       1.38536100
C        3.22794343       6.69469194       1.15970426       0.01877549      -0.00476341      -0.00124211      -8.48846743 F F F       4.19162610      -1.02658250      -2.64457160
C        0.80781706       2.95407070       4.53900940      -0.00603061      -0.00129403       0.03530330      -7.50028937 F F F       1.24197399      -1.27538049      -0.46070701
C        2.22424445       6.61310925       2.16705266       0.00925783      -0.01364975      -0.02783780      -5.34483273 F F F       0.40923533      -1.60603949       1.64436403
C        8.66279905       3.84400825       4.18412298       0.00500931      -0.00124120       0.00753296      -7.08274594 F F F       0.60173151       0.18240585      -0.10558855
C        9.80275197       3.37204233       3.60564562      -0.01341272      -0.00366104       0.01533071      -4.72120443 F F F       0.43194680      -0.96369586       0.57431483
C        2.38820566       1.68197774       5.07046500      -0.00080543       0.02547686      -0.01526865      -7.02991763 F F F       1.37094406      -2.78771264      -1.64873240
C        3.72639318       8.27073870       3.55300977      -0.00426410       0.01170640       0.00182020      -8.40291606 F F F      -2.99952796      -0.53914334       0.10903109
50
Lattice="9.9905032156 0.0 0.0 0.0 9.9905032156 0.0 0.0 0.0 9.9905032156" Properties=species:S:1:pos:R:3:velocities:R:3:local_energy:R:1:fix_atoms:S:3:forces:R:3 temperature=4385.76972811 pressure=-13307.00408672 time_step=0.5 time=40.0 energy_soap=-370.29001307 energy_2b=124.57146102 energy_3b=-1.81640094 energy_core_pot=0.0 energy_vdw=0.0 energy_exp=0.0 energy_xps=0.0 virial="-33.84178789 -0.12318814 -7.65021992 -0.12318814 -15.42607143 -14.02573275 -7.65021992 -14.02573275 -31.1345864" volume=997.153669 step=80 config_type=iter_8 energy=-247.534953 stress="0.03393839 0.00012354 0.00767206 0.00012354 0.0154701 0.01406577 0.00767206 0.01406577 0.03122346" pbc="T T T"
H        7.75853569       7.89885928       1.31174076      -0.01136785       0.02484978       0.08896088      -1.40082264 F F F       1.31417160      -0.13605155      -0.35786885
H        1.69499406       5.35378021       7.08393670       0.06053365      -0.02458396      -0.01293255      -3.02739567 F F F      -0.22561224       0.33017213      -0.36677093
H        9.85072169       7.23621991       5.68968379      -0.04434487       0.05196598      -0.08620288      -2.97444436 F F F      -0.17800554       0.24536096       0.29109568
H        5.40924048       6.95180965       7.51997201       0.03990574       0.00979496       0.08911659      -2.28417569 F F F      -0.62199080      -0.66218850       3.31863043
H        6.25818411       1.36647942       3.39500326      -0.06863105      -0.07220284       0.00257041      -3.32918122 F F F      -1.56090768       0.71534050       2.93918423
H        6.43662332       8.59555987       7.17697787      -0.02282478      -0.02672491      -0.05605724      -2.69670657 F F F       3.47290509       2.84641271       0.04703481
H        2.20900148       7.61795103       9.69154311      -0.01302037       0.03467270       0.02797256      -2.99368630 F F F      -1.00770760      -1.28338733      -1.80950228
H        8.43023614       1.84187950       3.10215001      -0.01509949       0.04245834      -0.03644718      -1.54504955 F F F      -0.06725708       0.21068864       0.19119170
H        5.44029353       6.06977151       2.30428513       0.00555829      -0.00076522      -0.01805589      -2.96270037 F F F       2.96536850       0.00578808       1.27123374
H        9.21231045       7.60004315       5.85002226       0.01054422       0.01975082       0.00758073      -3.02345826 F F F       0.11417269      -0.05055728       0.09345645
H        1.83971753       7.24742865       9.04996758       0.08677218       0.05876068       0.01693426      -3.02438533 F F F       1.02387213       0.75751899       1.79607468
H        6.21344088       6.08152414       2.74024004      -0.10321976      -0.02749532       0.10470875      -2.84110424 F F F      -2.45795972       0.05829312      -1.63409323
H        1.74793789       5.06996344       7.75873049      -0.08068787       0.09129886      -0.04614981      -2.96216033 F F F      -0.02770857      -0.04779789       0.42504696
H        2.41573350       5.38054584       2.05879150       0.08553239       0.00875644      -0.02611772      -2.51525095 F F F      -1.45291133       1.05218918       0.21353406
H        9.19035231       7.79191555       9.13038761      -0.04056310      -0.06682847      -0.00911230      -2.40906026 F F F       0.74196119       0.91274800       1.36347874
H        5.13487738       6.96552732       8.49317201      -0.07152010       0.06392160       0.10719562      -2.95442640 F F F       0.17377447      -0.49631242      -2.06204266
H        2.05713642       1.30457584       8.80570569       0.12418349      -0.04271528      -0.04377236      -2.90871911 F F F       0.40660294      -0.31313583       2.27006738
H        4.41216217       9.42122171       6.57355623      -0.03403329       0.04953373      -0.02776323      -2.69337037 F F F      -1.48947613      -2.04703460       0.53313035
H        4.92260892       7.86305967       6.41945364       0.04620311       0.00561339      -0.06339533      -3.45718102 F F F      -1.82230998      -0.13636361      -1.67701593
H        7.26799034       9.31716643       7.18236121      -0.09548935       0.09615003      -0.02940750      -2.47764191 F F F      -2.52820849      -2.54747646       0.06631041
H        3.06645356       7.30845997       5.89544333       0.03979726      -0.00644138       0.06086670      -3.10539529 F F F       1.99936980       2.37485591       1.84509043
H        9.30099978       9.25642581       2.01833420      -0.01626968      -0.03986398       0.04972307      -1.74183131 F F F      -0.23102052      -0.34760162      -1.10206733
H        0.77338680       5.24432887       0.09719091      -0.12988370      -0.06552990       0.17285035      -2.01492302 F F F      -0.37296421       1.09280558       0.39073438
H        2.13430263       1.19525384       9.64405712      -0.07518216       0.04376528       0.04512215      -2.90614665 F F F      -0.01106270       0.26594168      -2.61309847
H        9.43034573       6.03921746       0.39035442      -0.18267634      -0.11632467      -0.02101904      -2.79797759 F F F       1.02992585       0.43012894       0.44853777
C        2.83109031       0.62474053       4.70623721       0.01350407      -0.00188622       0.00953280      -7.77889257 F F F       1.91650595      -1.96024547       0.91821732
C        9.60584541       9.37530296       0.46914204       0.00234922       0.00626134      -0.00807206      -8.22047547 F F F       2.12408575       1.32846661       3.40944761
C        4.23993396       6.01395082       0.23869931      -0.00091818      -0.01168984       0.00525781      -6.37239582 F F F      -2.20871445       3.35670770       4.06379002
C        3.54627295       9.16648747       4.77384533       0.01016900       0.01448479       0.00329798      -7.12614702 F F F      -2.08985892       0.50259849      -0.69222145
C        0.44766696       3.92899433       4.44832387       0.01756420      -0.02624089      -0.00847127      -6.18211929 F F F      -0.13741646       0.86224233       1.74369930
C        3.89868561       8.31415437       6.10872655      -0.02510229      -0.00530722      -0.03105855      -6.42133860 F F F       0.22630727       1.64247745      -2.38301086
C        0.76285629       6.98778757       1.91240319       0.02264814      -0.00013565       0.00885909      -8.33791278 F F F       4.72857724      -1.90320271      -1.16560202
C        3.54787384       7.52401472       2.61484502       0.00572691      -0.00172649      -0.00049580      -8.36285958 F F F      -2.21242816       0.45504708       0.45485144
C        3.96515926       1.62314423       6.18335472      -0.01919413      -0.00634163       0.00414591      -8.20979240 F F F      -1.87657044      -0.30898409       0.83646139
C        4.85123339       3.65209510       7.23465805       0.00409539      -0.01177577      -0.00738773      -6.47907778 F F F      -0.77162380      -2.87454374      -3.87861035
C        0.33740635       1.95828780       2.99772043      -0.01295232       0.00806853      -0.00876880      -8.12047676 F F F      -3.16870236       7.88688954       4.48754302
C        0.06496306       6.90047819       0.72014517      -0.00056521       0.00773415       0.00392892      -7.07087660 F F F       0.11212545      -4.34272980       2.77473124
C        0.69073077       0.92473279       2.48921131       0.01910293       0.02861555      -0.03160067      -7.00098525 F F F       2.24559512      -7.79761855      -7.85421389
C        4.63335804       2.87640746       6.13699535      -0.04158161      -0.00257723       0.00265731      -6.46203441 F F F       0.50822586       3.72535172       4.78185195
C        5.63152426       1.65618118       4.44878572       0.01257928       0.02080893      -0.00183409      -8.64948004 F F F       5.40161041      -2.76909114      -6.93645258
C        4.59666573       2.08803338       4.97244677       0.00839910       0.01428706      -0.00030160      -3.93408520 F F F      -2.86834465       0.81318461       0.73691813
C        0.48849357       0.62933222       0.79616945       0.00820066      -0.01253851       0.01639840      -7.02722283 F F F      -1.43392380      -1.48827167       2.85185027
C        9.80674520       8.05569506       0.22479579      -0.00258735       0.03292886       0.00830237      -8.34301437 F F F      -3.47063368       4.05133598      -5.44475966
C        3.60058628       6.68445939       1.31858564       0.03382354       0.00800465       0.00417703      -5.87132125 F F F       2.07014928       0.10848130      -2.57149300
C        0.97636499       2.66346070       5.07846567       0.02486468      -0.02758794       0.01377578      -8.41723312 F F F       2.15250660      -1.46495198      -2.73275188
C        2.34690290       6.52217013       1.91229743      -0.02212319      -0.00119853       0.01440964      -8.53697609 F F F      -1.36224208      -0.88887679       1.56975291
C        8.67446458       3.85578349       4.31624837       0.01494802      -0.00620756      -0.00171825      -7.16507211 F F F       4.02392873      -1.71254688      -1.36052239
C        9.80892484       2.92095916       3.83690308       0.00266146      -0.03963834       0.01058751      -4.64131254 F F F      -1.33412409      -0.53033227       1.38831100
C        2.41378903       1.87420195       4.57662421      -0.01328801       0.01540244      -0.02629803      -7.39787306 F F F      -3.41954306       1.55627768       0.97045461
C        3.35553083       8.36906898       3.68172399      -0.01978962      -0.01114787      -0.00431459      -8.35878366 F F F       1.65748660      -1.47800273      -1.84961465
50
Lattice="9.9905032156 0.0 0.0 0.0 9.9905032156 0.0 0.0 0.0 9.9905032156" Properties=species:S:1:pos:R:3:velocities:R:3:local_energy:R:1:fix_atoms:S:3:forces:R:3 temperature=4278.46290767 pressure=2759.67171872 time_step=0.5 time=60.0 energy_soap=-396.19467104 energy_2b=145.04281545 energy_3b=0.74193119 energy_core_pot=0.0 energy_vdw=0.0 energy_exp=0.0 energy_xps=0.0 virial="-17.19253113 4.100895 -3.94339901 4.100895 -13.14243063 2.405914 -3.94339901 2.405914 -18.7097156" volume=997.153669 step=120 config_type=iter_8 energy=-250.409924 stress="0.01724161 -0.0041126 0.00395466 -0.0041126 0.01317995 -0.00241278 0.00395466 -0.00241278 0.01876312" pbc="T T T"
H        8.48467763       7.37736782       2.43284065       0.06200539      -0.00604717       0.03062389      -2.10482204 F F F       1.23638348       1.92620788      -0.09796369
H        1.25172532       6.10104089       7.24103344      -0.09114369       0.10557417      -0.01839940      -3.02010503 F F F      -0.12861793      -0.38008336      -0.39280085