      50
 Properties=species:S:1:pos:R:3:velocities:R:3:forces:R:3:local_energy:R:1:fix_atoms:S:3 Lattice="9.9905032156        0.0000000000    0.0000000000    0.0000000000    9.9905032156    0.0000000000    0.0000000000    0.0000000000    9.9905032156" temperature=4691.02934713 pressure=9317.75435227 time_step=1.0000 time=1000.000000 energy=-244.836059 energy_soap=-339.51002086  energy_2b=95.13149357 energy_3b=-0.45753210 energy_core_pot=0.00000000 energy_vdw=0.00000000 energy_exp=0.00000000 energy_xps=0.00000000 virial="-21.82025857          2.32566842      1.52242057      2.32566842     -6.02892013      9.06250363      1.52242057      9.06250363    -14.17692626" stress="0.02188254           -0.00233231     -0.00152677     -0.00233231      0.00604613     -0.00908837     -0.00152677     -0.00908837      0.01421739" volume=997.153669 step=1000
 H              8.94027032       7.74801507       9.62937035      -0.05280422      -0.09046289       0.05223326      -0.55378190      -0.20830222      -1.11178403      -2.30646725 F F F
 H              1.68267380       2.72106450       5.82238667       0.09445784       0.01209137       0.02205352       0.26706960       0.61938156       2.45264694      -2.30081241 F F F
 H              1.12313999       5.39541836       7.74256000      -0.06813259       0.09349731      -0.01475244       0.44593597      -0.99614384      -0.59353576      -3.05692580 F F F
 H              6.05918211       4.09675422       7.82010387       0.08687155      -0.05557208       0.06095063      -2.00309005       1.35314452      -0.43323739      -2.93559023 F F F
 H              5.36395602       0.46603003       3.20442473       0.08562963      -0.01025734       0.07652777       1.16932788       1.67141783       0.91106745      -2.93811779 F F F
 H              7.73796919       8.51538943       7.46714473      -0.07888000      -0.00269442       0.05345203       2.00903357      -3.47555275      -1.02602814      -2.50667080 F F F
 H              4.12305838       6.56819815       7.36120872      -0.04871706      -0.04338536      -0.05815998      -2.21838368      -0.76065923       2.14488673      -2.48635976 F F F
 H              9.01516894       0.68677667       3.95841287      -0.01436419       0.00670499       0.00555373      -0.00527991       0.16122846       0.63033001      -1.35123299 F F F
 H              6.24283440       7.13147029       9.51931977      -0.02740903      -0.03468863       0.09583928      -0.17459830       0.11453794      -1.04877415      -3.10724976 F F F
 H              1.31447387       4.70933410       7.30773950      -0.01703932       0.09034280      -0.04015457      -0.57359513       1.46881464       0.58875919      -3.03809393 F F F
 H              1.34090756       6.92416564       9.24448561       0.07265056       0.05064996      -0.03166529      -0.78725725      -0.33997956       2.64898188      -2.52712997 F F F
 H              6.63359263       7.28220928       8.79599682       0.16183376      -0.01784513       0.07877347      -1.12298260      -0.49375600       1.53344975      -2.96149038 F F F
 H              1.90188658       2.85147014       6.71692717      -0.03158072       0.02788326      -0.06229913      -0.70335118       0.11346970      -0.63224176      -2.60393874 F F F
 H              2.39831369       5.59466834       2.97903426       0.08382009       0.03824873       0.01220057      -0.61911926      -1.54920904       1.04775269      -2.85683762 F F F
 H              9.45319660       9.02784335       8.57248786       0.08680663       0.07261499       0.08237254       1.47931388      -0.85572146       2.11470439      -2.56324082 F F F
 H              6.92141344       2.69339147       7.12218732       0.03826360       0.16838605      -0.02380025      -2.22027579      -0.59623614      -1.11754644      -1.97376988 F F F
 H              1.48602202       0.82282371       9.12361751      -0.02188359       0.03903750       0.08639783      -2.26151398       2.27465091      -2.84316945      -2.70438858 F F F
 H              4.70889517       0.06256228       5.82313016      -0.01818410       0.04490571       0.01794141      -0.38987295      -2.11301503       1.82623914      -1.48684657 F F F
 H              4.00146669       8.02627064       6.59120965       0.06974762       0.03287706      -0.03404831       1.39412133       0.07915830      -0.61767754      -3.78665230 F F F
 H              8.19791173       7.55233442       7.24330301       0.08849704      -0.01198252       0.02931818      -1.78113905       3.61121264       0.33846950      -2.46325699 F F F
 H              2.52505901       9.13063365       6.73361226      -0.04221986       0.00500497      -0.05122175       3.01248488       0.01880413      -0.75931074      -2.91750051 F F F
 H              8.54439006       8.82414573       1.40241528      -0.10629466       0.01525296       0.01406424       1.57843919      -0.41152219      -0.39604030      -2.46457065 F F F
 H              3.33299766       6.54665362       7.88921500      -0.10134621       0.10263582       0.07029535       2.05088539      -0.45373935      -0.90247129      -3.01286966 F F F
 H              1.00259896       1.38854295       8.50395141       0.09094306      -0.03661940      -0.06936668       2.25872381      -2.39504275       2.36499395      -2.74298777 F F F
 H              9.74746969       5.53606204       9.91457298      -0.01465973      -0.14355956       0.01601202       0.91492913       1.62576263       0.47311224      -1.89917165 F F F
 C              2.76291796       0.28611199       4.67161783       0.00186923      -0.01020763       0.00606860      -0.89568126       4.44602039       0.85413636      -7.75839138 F F F
 C              9.70560827       8.97573283       1.03673918       0.02185298      -0.01264935      -0.02935672      -2.66090459       4.22300694       2.38396180      -8.45238796 F F F
 C              4.34179618       6.93335023       0.46632957      -0.01440419      -0.02699171      -0.00083765      -3.11104478      -0.60315489       1.63355857      -6.25012766 F F F
 C              3.51214306       9.08492145       4.46513623      -0.00698765      -0.00729724       0.02203010      -0.27477145       9.13196610      10.35875588      -5.89137531 F F F
 C              9.55235527       4.44362998       4.95535908       0.02448094       0.01092298      -0.00812556       4.09471896       2.70863677       5.36178801      -7.60482079 F F F
 C              3.77680665       8.99114345       6.17716330       0.00505056      -0.02402398      -0.00473937      -3.39301200       2.42529855      -2.65922166      -6.73649419 F F F
 C              0.84724454       6.77033457       1.69685372      -0.01151363       0.00833860      -0.00497909       2.37361004      -0.43412137      -0.13170782      -8.19637034 F F F
 C              3.33469258       7.61476386       2.43019270       0.00173499      -0.00179700       0.00670131      -1.50481064      -1.66047645       1.24584602      -7.71204448 F F F
 C              4.32954652       2.04776959       6.06892789       0.00716174      -0.00032987       0.02249193       1.93332778       0.38007934      -1.48415301      -8.05153546 F F F
 C              5.12201729       3.94171714       7.07446673      -0.03666994      -0.01711521      -0.00885315       3.59573910      -1.71375389       0.88111063      -6.90356059 F F F
 C              0.36673934       1.70138748       3.86044340       0.00810892       0.01275252      -0.01289253       0.51870889       1.27895996      -1.70605439      -6.86778578 F F F
 C              0.56971594       7.01286626       0.36180696      -0.02443225      -0.01373556       0.02978013       2.18591061      -2.57266898      -1.45017396      -7.96434359 F F F
 C              9.78324955       1.48997904       2.54925274       0.02146245      -0.03811284       0.00775149       0.58733732      -4.24413286      -1.23880006      -7.46095561 F F F
 C              5.45751251       2.71800776       6.48782174      -0.01964164      -0.00226598      -0.02140113      -0.99441150       1.65683055       1.73701651      -6.72453266 F F F
 C              5.48641367       1.38400200       4.07873248       0.00287599       0.00790907       0.00879114      -0.02377828      -2.98279709      -3.47974000      -7.11404001 F F F
 C              4.40486513       1.46944229       4.76294497       0.00670100       0.02146950       0.00757389      -1.47914226       1.18046626       3.44273251      -6.96946870 F F F
 C              9.88712925       0.21426732       1.85536501       0.01724769       0.04425509      -0.03511855      -0.02792238       0.86166123      -1.20021401      -7.97331418 F F F
 C              9.88710420       8.23617636       9.81322647      -0.02542983      -0.00361850      -0.02457676      -2.28657197       1.50633255       0.65295331      -7.48500124 F F F
 C              3.17582583       6.82750269       1.30399436       0.00891421      -0.01759994      -0.03276254       4.21079821       1.48883714      -1.60206615      -6.54796948 F F F
 C              1.24155856       2.85169183       4.01226046      -0.02515813       0.00736466       0.01944471      -2.64586002      -0.99518123       0.25654346      -6.81418439 F F F
 C              2.02498104       6.54144353       2.66787635       0.00765197       0.00263984      -0.00145435      -0.25901372       2.62897781      -4.75061458      -7.58002923 F F F
 C              8.83628760       3.93593521       4.05023232      -0.00488560      -0.00758572       0.00511428      -5.66905076      -2.05798994      -3.48523110      -3.22868414 F F F
 C              9.87020590       3.44045768       3.43926877      -0.00874279       0.00224037       0.00558674       3.68700558      -1.84451869      -0.85906088      -8.45284257 F F F
 C              2.37351626       1.43555957       5.27494647      -0.00139707       0.02090099       0.00662626       1.08163872      -4.19174045      -3.42882837      -7.03978758 F F F
 C              3.50479535       8.16425271       3.70726678       0.01757500       0.01484526       0.00446383      -0.20884317      -9.07924146      -8.92611393      -8.06383926 F F F
