      50
 Properties=species:S:1:pos:R:3:velocities:R:3:forces:R:3:local_energy:R:1:fix_atoms:S:3 Lattice="9.9905032156        0.0000000000    0.0000000000    0.0000000000    9.9905032156    0.0000000000    0.0000000000    0.0000000000    9.9905032156" temperature=5112.91811690 pressure=5253.59097769 time_step=0.5000 time=0.000000 energy=-209.837102 energy_soap=-196.84399622  energy_2b=-18.77388637 energy_3b=5.78078057 energy_core_pot=0.00000000 energy_vdw=0.00000000 energy_exp=0.00000000 energy_xps=0.00000000 virial="-10.08649319         -7.45942883      1.24359676     -7.45942883    -17.69818355     -9.01775693      1.24359676     -9.01775693    -27.17398728" stress="0.01011528            0.00748072     -0.00124715      0.00748072      0.01774870      0.00904350     -0.00124715      0.00904350      0.02725155" volume=997.153669 step=0
 H              2.82384287       8.54374189       1.30586333       0.09006081       0.09689517       0.12368082       1.00922705      -0.62376825       0.03663401      -1.12683926 F F F
 H              8.40898132       8.59191784       5.63308449       0.15387103      -0.08209450      -0.00776766       1.96046949       3.90548269      -3.16248859       0.13960259 F F F
 H              2.61503336       3.33513466       4.26775352      -0.13285580      -0.10107518       0.02621416      -0.33917927       2.25092045      -0.50093384      -3.09313728 F F F
 H              9.34842540       7.97129721       0.73362606       0.08827328       0.02150201      -0.04149948      -2.11303915       0.17750199       0.49824642      -3.15201545 F F F
 H              8.66052782       2.16913032       9.77262278      -0.13558126      -0.02290588       0.06983420       1.02311723       0.66649804      -0.27460772      -1.54046059 F F F
 H              1.54638129       7.15029304       5.41874495      -0.02183583       0.03795386       0.03845932       2.11857418       3.28283382      -0.35992135      -1.94522912 F F F
 H              2.70286444       7.13096230       9.39010169       0.06466443       0.08284807       0.12515952      -0.80252098      -6.33105151      -2.85465180      -1.72473693 F F F
 H              0.71382244       2.67243539       3.20578583      -0.02622242      -0.01532763       0.02821478       3.36150664      -0.54135843       1.72811590      -1.70022432 F F F
 H              8.85156511       3.02717300       2.33461318       0.01079318       0.01081744       0.09571898      -0.37642697       0.72082009       0.90057194      -2.50767715 F F F
 H              9.24453593       7.46757232       2.49555132      -0.05359033      -0.04962763       0.00259910      -0.20390906       0.98192336       1.11767389      -1.93048382 F F F
 H              0.29465252       9.95766243       5.12789511       0.11091523       0.07359467      -0.08927547       0.32875573      -1.62762943      -0.68681529      -2.49739210 F F F
 H              0.90859456       5.00874244       6.39973008      -0.07991557       0.01284594       0.04387578       1.06349060       0.13504975       0.27349382      -2.74161181 F F F
 H              7.92911147       8.68350466       6.97854369       0.07758949      -0.00136467       0.10892918      -0.25885573      -1.57814009      -0.68845060      -2.27827975 F F F
 H              7.96789712       7.78075443       3.49243087       0.03377066      -0.12784093       0.01938276       1.97394789       0.56450484       1.33452711      -2.26938886 F F F
 H              4.25302936       8.68652500       9.07376600       0.04905672      -0.07969613       0.01444504      -0.64642906      -1.11455295       1.21187919      -1.90513600 F F F
 H              1.63432581       5.29967037       6.50688874      -0.01383992      -0.05801446       0.05989171      -0.72926218      -0.16954631      -0.12775807      -2.91000910 F F F
 H              5.18158124       8.77506050       3.14782729      -0.00605393       0.12695744      -0.03000589       0.40627488      -1.12579184      -0.56181497      -2.95894681 F F F
 H              9.29119580       3.49698243       3.11566493       0.06474354       0.00466197       0.04992960      -0.66208664      -0.89309345      -1.83815504      -1.43390465 F F F
 H              7.60412119       6.16501974       4.56668848      -0.08944850      -0.06620257       0.06185728       0.30196931      -1.72219468      -0.70985243      -0.92259673 F F F
 H              2.41507694       2.21370975       2.51212903      -0.07143138      -0.02753546       0.06405385      -1.09430640       1.13980384       3.39858635      -2.38471431 F F F
 H              2.54597481       8.17551822       5.38179406       0.05828518       0.08790132       0.01536267      -3.31298345      -2.49909569      -0.07647072      -1.65489065 F F F
 H              9.03204941       1.83079249       7.63843749      -0.01408750       0.03640580       0.06316332      -0.29565749       0.01495185      -1.22469750      -1.52619667 F F F
 H              9.01183611       1.23982446       4.34956966       0.01887572      -0.16047541      -0.07089583      -0.46269947      -0.34928363       0.20105417      -0.86664179 F F F
 H              5.15011100       3.92675521       0.28930952      -0.01792545      -0.00084200      -0.09084283       2.50563048      -0.72510970      -1.92679093      -1.98215157 F F F
 H              2.50592537       1.97689837       4.53633734       0.10124430      -0.01170049       0.05368591      -1.25889448      -1.30225005      -0.34614383      -3.18579593 F F F
 H              1.99082775       9.21043104       0.14783221       0.09524259      -0.05136498      -0.00819339       0.29299854      -1.04269173      -1.24601349      -1.73896291 F F F
 H              0.84880676       8.07565817       0.29495426      -0.04568184      -0.02160045       0.08723888       0.04758073      -0.46020735      -0.29357445      -2.00672920 F F F
 H              5.48290482       8.11612354       2.84314031       0.00372018       0.05010789      -0.19344367      -0.53500467       1.09653133       0.43342628      -2.98589155 F F F
 H              9.96289466       7.60396725       8.49340594       0.08281590      -0.01951236      -0.02479051      -0.69462435       0.79811386       3.94377418      -2.88730543 F F F
 H              7.44684426       2.64542326       9.04788292       0.00234512      -0.00089279       0.05497325      -0.62808357       0.55128919       0.06204551      -0.11331647 F F F
 C              2.44955845       7.98007181       9.70827428      -0.03418479       0.01545283       0.01948787      -8.88942314       7.95774991       0.89179768      -8.41233799 F F F
 C              1.90876745       2.63497095       3.84285739      -0.02609221       0.01505656      -0.03209617      -0.16317508      -1.42578593      -3.86979797      -7.23462832 F F F
 C              7.76328756       0.57616763       5.19909242       0.01378251      -0.00449114       0.00959321       1.87763510       4.31729526       1.67199995      -6.96221628 F F F
 C              8.40590321       1.03069394       6.45183066       0.02830458      -0.00544697      -0.01799383      -1.36748125      -1.76952832      -1.79005523      -7.60630851 F F F
 C              8.88259401       3.28580806       8.54083296       0.00863927       0.01482575      -0.01329515      -2.58796751      -0.97638399       1.92633485      -8.01620917 F F F
 C              8.03151243       7.84357779       6.05395843       0.03190074       0.00296685      -0.02236858      -2.70320919      -4.73132003       4.63218839      -7.35831671 F F F
 C              9.07468688       7.76017734       4.18026161      -0.00699430       0.00828972      -0.00891365       1.35122393       2.65837565      -0.08018325      -7.60297407 F F F
 C              0.16750086       8.89462552       4.56523283      -0.02838097       0.01258834      -0.00851087      -2.78559013      -2.86079242      -0.12138263      -7.15676936 F F F
 C              7.42759562       5.24486164       7.03237599      -0.02190465       0.01085054       0.00491210       0.37765470      -2.42088188      -0.07457948      -7.20069057 F F F
 C              0.25710126       4.04570281       3.98144814       0.00053404      -0.00150863       0.01871288       3.42551589      -2.81142405      -2.73542066      -8.90634827 F F F
 C              7.41954536       6.46502515       6.65879574       0.00896740       0.01611543      -0.01781818       1.83392186       5.21475803      -2.04413062      -7.74101774 F F F
 C              7.37014402       3.23254284       4.97179705      -0.02197822      -0.00424946      -0.01043521       1.30065491       2.42730613      -0.73046886      -7.81735242 F F F
 C              6.93133730       5.17266905       8.77387383       0.00985979       0.00398257       0.00152354       0.47844897      -3.24033380      -0.41348557      -9.04934011 F F F
 C              3.58485571       7.80013797       9.98964501      -0.00121812      -0.02021704       0.01071723       9.53126232       1.55069765       1.90026284      -7.70580742 F F F
 C              6.24734101       3.82236419       9.29162786       0.00349547      -0.00476227       0.00461112      -4.30187096       2.22265831       2.11163943      -8.53163297 F F F
 C              9.58660543       4.69045562       4.79431171       0.01450949      -0.00707001      -0.01741581      -3.85041396       2.16738233       2.72654294      -5.92346688 F F F
 C              9.86542961       7.76970348       9.80502331      -0.01393836       0.00978069       0.00777852       2.23785621      -0.83351608      -3.90663679      -6.07616278 F F F
 C              7.07645732       1.99051930       4.67636176       0.00670933      -0.00140508       0.00712683       0.39427975      -1.80083374       1.30149623      -7.05619870 F F F
 C              7.44345606       3.88535124       9.03107929      -0.00569755      -0.03019548       0.02344376       3.26979607       0.16042952      -1.53513127      -4.98704336 F F F
 C              8.08311846       4.64472829       4.91740922       0.00023312      -0.00906964      -0.01371866      -1.40869830       0.01368745       1.87812191      -8.66121679 F F F
      50
 Properties=species:S:1:pos:R:3:velocities:R:3:forces:R:3:local_energy:R:1:fix_atoms:S:3 Lattice="9.9905032156        0.0000000000    0.0000000000    0.0000000000    9.9905032156    0.0000000000    0.0000000000    0.0000000000    9.9905032156" temperature=5219.94174403 pressure=-14328.56503172 time_step=0.5000 time=10.000000 energy=-213.107225 energy_soap=-211.21333210  energy_2b=-5.22283657 energy_3b=3.32894347 energy_core_pot=0.00000000 energy_vdw=0.00000000 energy_exp=0.00000000 energy_xps=0.00000000 virial="-37.73822864         -0.17710173     12.63867974     -0.17710173    -34.72441922     -0.82782027     12.63867974     -0.82782027    -20.41403153" stress="0.03784595            0.00017761     -0.01267476      0.00017761      0.03482354      0.00083018     -0.01267476      0.00083018      0.02047230" volume=997.153669 step=20
 H              3.80190363       9.18687806       2.09539400       0.07311637       0.03796954       0.01675109      -0.56061842      -0.13872772      -1.00160769      -1.99550720 F F F
 H              0.37186143       8.52068759       5.58661086       0.20237384       0.04042104       0.03664965      -0.17796171       1.04837408      -1.24728388      -1.69680015 F F F
 H              1.71040328       3.43825613       4.67066222      -0.07928477      -0.01717781      -0.02215782       0.42672525      -0.93586223      -0.92388704      -1.34331774 F F F
 H              9.18776221       8.41428849       0.69791833      -0.01227365       0.01970345      -0.09402192       1.09097695      -0.61656345      -2.36438176      -3.06457654 F F F
 H              7.55143684       1.93102912       0.58359814      -0.10783025      -0.03080771       0.08359571      -0.16538835      -0.10474229       0.13323047      -2.45230463 F F F
 H              1.47860195       8.20136196       5.85654778      -0.09307645       0.04881622       0.07955014       1.86930015       0.18768952      -0.06865530      -1.93888000 F F F
 H              3.25844390       6.07231729       0.02770029       0.07501115      -0.08066170       0.06535232       0.21074178       3.17587387       0.33380367      -1.76023674 F F F
 H              0.55723095       1.94395049       3.94838261      -0.02382102      -0.13509249       0.08574806       2.09901221      -0.01610448      -0.32083907      -1.68272550 F F F
 H              8.58215801       3.06987476       3.13297832      -0.04184167      -0.02071087       0.02270590       1.06430367      -0.37165460      -1.70406915      -2.03943776 F F F
 H              8.97614304       7.49496891       2.95963509       0.02043267       0.06568855       0.08254244       0.87458052       1.08933644       0.40734065      -2.52754221 F F F
 H              1.04678649       9.84719262       4.04325489       0.00226287      -0.07725009      -0.11252085      -1.89688779      -0.97392135       0.20572330      -2.17639050 F F F
 H              0.50820932       5.12758524       6.91975416      -0.03487118      -0.00784939       0.05237682       1.31136480      -1.39446608       0.15799350      -2.85033080 F F F
 H              8.71196091       8.35549543       7.23893157       0.08713502      -0.03731775      -0.06024311       0.20438848      -0.13231475      -1.82329548      -1.63855017 F F F
 H              8.48791506       6.69699762       4.06127722       0.05776697      -0.09344097       0.06754247       0.97991492       1.03244422      -0.37897410      -1.69765743 F F F
 H              4.60692390       7.56351698       9.58235790       0.08616388      -0.10251547       0.02550226      -0.38287302       0.50808202       0.22698654      -2.83636319 F F F
 H              1.18198586       4.69184130       7.02238801      -0.05579034      -0.05667298       0.04686407      -1.72636100       0.80450140      -0.31019348      -2.96646621 F F F
 H              5.44398220       9.18865614       2.28212872       0.04842854       0.02541643      -0.08962054      -0.18154614       0.47236035      -2.31613127      -2.38745660 F F F
 H              9.52395451       3.32575721       3.03232669      -0.03809689      -0.02474467      -0.04058352      -1.92164032      -0.48285824       0.00135341      -1.51848565 F F F
 H              7.04635510       4.82682806       4.59459894      -0.03436719      -0.15033480      -0.05509960      -1.38786078       1.65205653      -0.70815335      -0.88791227 F F F
 H              2.27280881       1.62149855       2.68735971       0.03204369      -0.07114589      -0.04314270      -0.76912690       1.69178578       1.30463119      -2.00406923 F F F
 H              2.62020673       8.53805475       5.37771650       0.10873196       0.08499605      -0.03177312      -1.59446842      -0.45794965       0.72825186      -2.14525529 F F F
 H              8.91803034       2.46930425       7.93849932       0.00211331       0.09234978       0.02209571       0.65166058      -1.57638579      -0.87722695      -1.99494214 F F F
 H              8.77097298       9.54599160       3.87938859      -0.03531114      -0.17204871      -0.01139100       0.62796164       0.39317448       0.78562426      -0.70906188 F F F
 H              5.06703262       3.55440592       9.16460325      -0.07382567      -0.05755489      -0.08837974       1.90153983       0.69334875       0.39735744      -2.35143328 F F F
 H              2.70414392       1.94815030       4.49865045      -0.05362217       0.04282471      -0.06140247      -1.52957920       1.37626635      -1.33701397      -1.96715954 F F F
 H              2.68971871       9.51357340       0.02295898       0.01204687       0.08170595      -0.00236737      -1.84419659      -1.95410683      -0.08687285      -1.69296430 F F F
 H              0.53196936       7.58398279       0.75981998      -0.04840884      -0.06050679      -0.01088328      -0.95237775       0.26014428      -0.91816054      -2.04831486 F F F
 H              5.12546052       9.37492987       1.40711713      -0.05501189       0.12448487      -0.13961455       0.14877352      -1.00920667       2.37182373      -2.24621593 F F F
 H              0.67943675       7.62502560       9.00069024       0.09452038       0.00235521      -0.02948583      -1.50130157       1.06753331       0.19931661      -2.09309434 F F F
 H              7.31541411       2.57276482       9.93694278       0.00369296      -0.04926326       0.14796982       1.00741510      -1.19870310       1.07073207      -1.48328860 F F F
 C              2.05515407       8.22691928       9.93476454      -0.02489073       0.02157235       0.02540213       5.88925631      -0.65930706       0.89924199      -8.05591088 F F F
 C              1.66253983       2.73114249       3.57845047      -0.02011105       0.01028015      -0.00901111      -1.20578435      -2.68299299       2.34218252      -8.51489251 F F F
 C              7.95716678       0.62681675       5.30550051       0.01569385       0.00683524      -0.00020770      -4.12454918      -0.93590538      -5.97063828      -4.97584357 F F F
 C              8.65230692       0.91170766       6.25168069       0.02885491      -0.01510896      -0.01062576       4.14263013       0.18505349       5.56174775      -6.69104132 F F F
 C              8.85260597       3.42058710       8.45944870      -0.01681710       0.01391214      -0.00202707      -4.30689567       2.11990389       3.28076604      -7.64968368 F F F
 C              8.24341389       7.79940038       5.97690368       0.01204346      -0.00533889       0.00386792      -0.90165325       1.62162118       2.09254179      -8.06347420 F F F
 C              9.05915807       7.89994346       4.08272370       0.00027813       0.01442420      -0.01226861      -0.54623063      -1.37702154       0.27267905      -7.87414453 F F F
 C              9.81524417       8.97472102       4.45256254      -0.03911008       0.00763737      -0.01455379      -0.42921575      -0.03296515      -0.12441304      -8.98351592 F F F
 C              7.23231348       5.34009709       7.08882365      -0.01558643       0.01415269       0.00685393       1.27220583       1.92247492       0.06299457      -7.31569703 F F F
 C              0.44700907       3.93107068       4.04266773       0.03052393      -0.01083957       0.00267376       0.92029538       2.29775666       1.19415760      -8.94239850 F F F
 C              7.58526969       6.72458525       6.44192340       0.02189134       0.02473338      -0.02171247       0.11154789      -3.12428364       0.58790741      -7.47765866 F F F
 C              7.21545725       3.27064045       4.84387226      -0.00939018       0.00525916      -0.01330844       1.11014060      -2.02272920       0.53565493      -8.16124012 F F F
 C              7.03477994       5.05627519       8.76136896       0.01032520      -0.02615000      -0.00603378       0.30806380      -2.27399572      -2.03407249      -8.48829886 F F F
 C              3.65501743       7.66294400       0.12949308      -0.00856020      -0.01478902       0.01589658      -4.16702133      -0.96544405      -0.24246628      -7.22878949 F F F
 C              6.26177862       3.91129365       9.32483795       0.00988239       0.02121865      -0.00399700      -1.80026361       0.96975442      -1.65532840      -7.64059316 F F F
 C              9.53183550       4.74914046       4.76589552      -0.01814171       0.01042964       0.00257331      -0.83920955      -1.47057551      -1.09306206      -7.42603099 F F F
 C              9.81590909       7.84804536       9.81995317      -0.00470714       0.01122743       0.01909992       1.93202218       0.01714387       2.63574391      -6.12155221 F F F
 C              7.17639154       1.90098652       4.79548265       0.01327274      -0.01299854       0.01566193       0.45418067       0.41570087       0.76776312      -8.13969169 F F F
 C              7.50261691       3.60687719       9.18918466       0.01605634      -0.02177543       0.00652305       3.13540956       2.30823886      -2.66908885      -6.55976845 F F F
 C              8.01484308       4.57002973       4.85172137      -0.01146534      -0.00604351       0.00002379       1.16859954      -0.40183207       1.61826591      -8.60025874 F F F
      50
 Properties=species:S:1:pos:R:3:velocities:R:3:forces:R:3:local_energy:R:1:fix_atoms:S:3 Lattice="9.9905032156        0.0000000000    0.0000000000    0.0000000000    9.9905032156    0.0000000000    0.0000000000    0.0000000000    9.9905032156" temperature=5088.84352657 pressure=-13395.93323457 time_step=0.5000 time=20.000000 energy=-214.166139 energy_soap=-223.78562604  energy_2b=7.08066870 energy_3b=2.53881789 energy_core_pot=0.00000000 energy_vdw=0.00000000 energy_exp=0.00000000 energy_xps=0.00000000 virial="-32.07642807         17.28378044     -0.55426875     17.28378044    -35.34499123      0.24944607     -0.55426875      0.24944607    -22.05323824" stress="0.03216799           -0.01733312      0.00055585     -0.01733312      0.03544588     -0.00025016      0.00055585     -0.00025016      0.02211619" volume=997.153669 step=40
 H              4.24521559       9.54078888       1.89227649       0.00827063       0.02951652      -0.04727873      -0.14837697      -0.33999600      -0.90898672      -2.54119103 F F F
 H              2.03950974       9.07975883       5.66379610       0.18226146       0.03851602       0.03144384       1.92416625       0.21753472      -0.30929638      -2.38177567 F F F
 H              1.21983690       3.20592114       5.11573824      -0.04428087      -0.01065534       0.12527615      -0.55674195       0.65394181      -0.12040149      -1.15990964 F F F
 H              9.05404959       8.85511053       9.61306923       0.05649209      -0.02509155      -0.08135927       2.38478750      -3.05990703       1.54914927      -2.79825281 F F F
 H              6.55532500       1.55695779       1.50266929      -0.04752141      -0.00635358       0.06702796       1.07750377       0.52332819      -0.46169807      -3.05394953 F F F
 H              1.13593166       8.57223138       6.79970712      -0.00225393       0.06659807       0.03693052      -0.16703838       0.57255463      -1.22922637      -1.99273295 F F F
 H              3.77090749       6.60219148       0.72251373      -0.01350032       0.10044643       0.09594247      -1.91762849      -4.27746116       3.30006671      -2.90214073 F F F
 H              0.62176021       0.79955968       4.60720533      -0.00414911      -0.09284722       0.04948459      -0.56266818      -0.02992635      -0.29334660      -1.54678444 F F F
 H              8.22179258       2.62101791       2.97289181      -0.02137344      -0.04525212      -0.01559281       3.48606218       1.60826647      -0.33626958      -2.49107098 F F F
 H              9.42982075       7.68481173       2.56328602       0.04563886      -0.02996824      -0.07062252      -0.42826734      -0.36032087       0.94896729      -1.86041521 F F F
 H              0.21819194       8.86174975       3.36532600      -0.11827860      -0.08140369       0.00010343       0.72605477       1.24355111       0.88855243      -1.44999372 F F F
 H              0.13410974       4.85338615       7.36605448      -0.04476410      -0.05197848       0.02860873       0.20561232      -0.66018749      -0.47303724      -2.80282324 F F F
 H              9.61743972       8.17144137       6.06542411       0.10949073       0.01825318      -0.09700110      -0.14012011       0.27772912       1.44167463      -0.89450220 F F F
 H              9.51948222       6.17840366       4.46059938       0.14231479      -0.04173222       0.01317227       0.17750097      -0.68414408      -0.16649392      -1.33375893 F F F
 H              4.49138131       7.22109273       0.15941886      -0.03706049       0.05594955       0.04710102       3.98216933       2.17529760      -1.96820585      -3.00993625 F F F
 H              0.46133529       4.12987411       7.38543912      -0.06952863      -0.02463100       0.02077314       0.30269469       1.68493729      -0.51358547      -2.64275079 F F F
 H              5.61555664       9.80620095       0.45434144       0.00994300       0.08296284      -0.23093995      -0.56870234      -0.13015824       0.47993617      -3.14769189 F F F
 H              9.06401552       2.93237316       2.64907478      -0.02717514      -0.04509735      -0.01422020      -2.02398579      -0.77992732       1.83489317      -2.68602349 F F F
 H              6.20932325       3.67443371       3.86744772      -0.09135561      -0.12860228      -0.06014817       1.30549069      -0.77784013       1.28086381      -1.76132673 F F F
 H              2.24526807       1.53582775       2.70539973      -0.03291682       0.03222857       0.02304343      -0.47852581       0.84516870       0.60833278      -1.95250470 F F F
 H              3.24319148       9.29791039       5.20763297      -0.02025872       0.06479948       0.00671767      -3.05509272      -0.46776402       1.11687375      -1.92267464 F F F
 H              9.26996318       2.57474242       7.70365673       0.02183999       0.01801346      -0.00209758      -1.25121732       0.22284289       1.03177815      -1.65316012 F F F
 H              7.65756230       8.41012549       3.80677791      -0.17657585      -0.09727008      -0.00741950       1.35916233      -0.80831839       0.34674923      -1.42778702 F F F
 H              5.47562055       3.48600699       8.73406761       0.11666885       0.03506743       0.01191583      -0.85227024      -0.26040717       0.63443293      -1.77008942 F F F
 H              2.57963949       2.26638998       3.70584366       0.11310568      -0.02996180      -0.04552633      -1.56867241       0.68896564      -0.37845279      -2.34048130 F F F
 H              2.05951148       9.38115947       0.04182936      -0.09768453      -0.05785212       0.01271907       0.74501499       4.78527258      -0.19842943      -2.33707667 F F F
 H              9.73083820       6.99228309       0.77109010      -0.09448722      -0.01507050      -0.01987320       0.59582664       2.47211053      -2.11699559      -2.99222157 F F F
 H              4.85679763       9.97512998       0.96401584      -0.01664536       0.01406359       0.00322688      -0.01046100      -0.39063888      -0.14306361      -1.64806634 F F F
 H              0.88162247       8.20554528       9.16451007      -0.04488438       0.06900381       0.06616361      -1.34966673      -1.20900796       0.42583964      -1.81031939 F F F
 H              7.30757392       1.92622308       1.43376173      -0.07305337      -0.09860731       0.13198524      -1.93310690      -0.79155029      -1.04497260      -2.81910376 F F F
 C              2.01284878       8.40308006       0.19952049       0.00980175       0.01018474       0.02480484       2.05368919      -7.55671473       0.88583720      -7.32020255 F F F
 C              1.36169607       2.77556845       3.49348697      -0.04537470       0.00808289      -0.01125534      -0.33316093       1.11277126       1.23449060      -7.97215145 F F F
 C              8.02268410       0.68439771       5.18018189       0.00845908       0.00528514      -0.01287594       2.47162004      -0.80436190       1.47812972      -5.60431934 F F F
 C              9.03161264       0.74235384       6.24354636       0.03731619      -0.02128475      -0.00407969      -1.47597374      -1.30780891      -2.54126329      -6.89827484 F F F
 C              8.61076624       3.62437304       8.51024520      -0.00959868       0.01659798      -0.00504516       8.31745431      -1.93769356      -5.41190331      -9.17362675 F F F
 C              8.40945258       7.86910264       6.02874859       0.02041253       0.01359550       0.00215439       0.91943651      -0.38943469      -0.76122953      -8.16815323 F F F
 C              9.04309507       7.96923197       4.07317285      -0.00857876      -0.00130537       0.00096262      -3.18233756       0.19746833      -0.84513137      -8.92877455 F F F
 C              9.53227990       9.15004350       4.31505646      -0.01468229       0.03179254      -0.01273671       0.88278243       1.78424212      -0.13220581      -8.94805855 F F F
 C              7.13738199       5.53483214       7.15623969      -0.00249573       0.02251067       0.00699019       2.02289216       0.26227293       0.12762047      -7.60157580 F F F
 C              0.72546336       3.90847903       4.08861215       0.02301477       0.00019467       0.00457706      -0.44945262      -2.10717642       0.32091955      -7.88964629 F F F
 C              7.72334732       6.75967986       6.29387674       0.00570507      -0.01396330      -0.00778851      -0.54922789      -1.74927304       1.00226995      -7.30934647 F F F
 C              7.15653522       3.26143099       4.73185917      -0.00580918      -0.00385295      -0.01225453      -1.16098596      -0.39763181      -1.18273401      -8.07524672 F F F
 C              7.17654140       4.78209662       8.59991617       0.02252590      -0.02417616      -0.02665261       2.68244351       1.42332282      -2.47522547      -6.94643154 F F F
 C              3.50207417       7.47080491       0.26762487      -0.02256367      -0.01766948       0.01323288      -5.88590130       6.01745832      -1.07654246      -5.15958982 F F F
 C              6.26711572       4.06909773       9.23616887      -0.01042516       0.00566687      -0.01092923      -1.39693736      -1.76716311       0.09513570      -8.30489579 F F F
 C              9.32474538       4.77976472       4.73901544      -0.02302677      -0.00297598      -0.00788534      -0.14933528      -0.65892682      -0.93163126      -7.92949860 F F F
 C              9.91026819       7.92288035       9.97478179       0.01719484       0.01089341       0.01160255      -0.04217416       1.95237087       0.00984038      -6.72062755 F F F