      55
 Properties=species:S:1:pos:R:3:velocities:R:3:forces:R:3:local_energy:R:1:fix_atoms:S:3 Lattice="19.5718046752       0.0000000000    0.0000000000    0.0000000000   19.9614250672    0.0000000000    0.0000000000    0.0000000000   21.1848089344" temperature=325.11627982 pressure=610.76838754 time_step=2.0000 time=4000.000000 energy=-201.228574 energy_soap=-57.09332126  energy_2b=-94.37655533 energy_3b=0.00000000 energy_core_pot=0.00000000 energy_vdw=0.00000000 energy_exp=0.00000000 energy_xps=0.00000000 virial="1.15522762           -2.55754278     -1.78550426     -2.55754278      2.05530033     -1.81673906     -1.78550426     -1.81673906      1.71612435" stress="-0.00013958           0.00030901      0.00021573      0.00030901     -0.00024833      0.00021951      0.00021573      0.00021951     -0.00020735" volume=8276.504722 step=2000
 Au             9.80724958      12.59694858      11.78093636      -0.00085910       0.00027024      -0.00164292       0.31129761       0.05428670      -0.29195357      -3.41960276 F F F
 Au             4.55920236       9.71473376      12.51255813      -0.00028917      -0.00106725       0.00003156       0.13554253       0.31921964      -0.24087679      -2.53974247 F F F
 Au            11.69865776      14.72573119      11.26899418       0.00178429      -0.00074897       0.00094955      -0.31764908       0.25836402       0.30810965      -2.43846790 F F F
 Au            10.74330631       5.13583861       9.67889057      -0.00051422       0.00075477      -0.00042495       0.47055756      -0.85758382      -0.60331608      -2.56792583 F F F
 Au            13.07822704       6.84659784       8.95818456      -0.00105031       0.00040625       0.00067950      -0.30001337      -0.11922879       0.40711298      -2.87271860 F F F
 Au             8.43967801      13.06731209      14.09759967      -0.00104366       0.00112827       0.00071644      -0.52605659      -0.05982121       0.24925410      -2.53916368 F F F
 Au             7.11617324      10.05626506       7.59820640      -0.00043942       0.00189635      -0.00188946      -0.36195947       0.26880602       0.42837306      -3.11810272 F F F
 Au             5.25753815      12.34363967      11.66942828      -0.00023686      -0.00185264       0.00053911      -0.00932432      -0.31853699      -0.34466436      -2.79744791 F F F
 Au            12.66540519       5.80437461      11.61250811      -0.00029349      -0.00072336       0.00071964       0.26052731      -0.01810558      -0.25808639      -2.46713153 F F F
 Au            11.75220629      11.07937823      10.54439835       0.00289409      -0.00054039      -0.00087863      -0.59907856      -0.09072401       0.01529555      -3.59272714 F F F
 Au             9.17097660      15.03853185       7.47225811       0.00108302       0.00044928       0.00076443      -0.23170578      -0.29146054       0.03709497      -2.48470691 F F F
 Au            12.91464379      12.81797753      12.77627968      -0.00226611      -0.00111886      -0.00152370      -0.10987558      -0.32193074       0.20205691      -2.67459003 F F F
 Au            14.68326880      10.62536889       6.72840173      -0.00092627      -0.00023512      -0.00094885      -0.08482313      -0.14506785      -0.07101135      -2.24137046 F F F
 Au            13.94503396       8.20396799      11.82702961      -0.00101108      -0.00048979      -0.00048998       0.37794434       0.25683523      -0.20970961      -2.74802105 F F F
 Au            10.90416528      11.83663008      14.34110425      -0.00075125       0.00009664       0.00037168      -0.02808578       0.01366424       0.10303727      -2.85283842 F F F
 Au            10.58105635       8.58758727       5.22089192       0.00078402       0.00098642       0.00022913       0.23845700      -0.02605392      -0.33267877      -2.52790217 F F F
 Au            10.99366282       6.66209695       7.09857584      -0.00060481      -0.00186652      -0.00130187       0.20299867      -0.78284059       0.14487838      -2.91983521 F F F
 Au             7.67733215       5.57267302      10.48816881      -0.00222711      -0.00013094       0.00100003       0.31810498      -0.64832717      -0.29118445      -2.84281666 F F F
 Au            13.64761465      13.26129494      10.13492477       0.00016552       0.00064069      -0.00075310       0.33434948      -0.22690080      -0.44955230      -2.60225330 F F F
 Au            11.06047418       9.27172098      15.53629518       0.00045916      -0.00082346      -0.00095750      -0.16257077       0.13897659      -0.36201679      -2.50027799 F F F
 Au             6.41805414      14.59367593       9.18802970       0.00115131       0.00107410       0.00072690       0.60062962      -0.29141512      -0.01433518      -2.49576859 F F F
 Au             7.24475742      14.25360965      11.89525501      -0.00258788       0.00079141      -0.00030797       0.01338521       0.00382384       0.06354572      -2.63677425 F F F
 Au             6.67458238       7.51258976       8.90297385       0.00180860       0.00066034      -0.00015267       0.18934617       0.68092343      -0.83461519      -3.05249451 F F F
 Au             7.68959922      10.80079314      12.26432012       0.00268833      -0.00051415      -0.00043361       0.31291948      -0.64260985       0.05376802      -3.49334162 F F F
 Pd             6.61450897       8.73859828      13.89216402      -0.00071113       0.00080018       0.00124263       0.52505992       0.05954803      -0.18352059      -4.29489355 F F F
 Pd             5.24466808      12.13132366       8.64650043       0.00099263       0.00026898       0.00091513       0.41161020       0.01707991       0.09616859      -3.68284622 F F F
 Pd             8.09235341       8.13666701      11.40422577      -0.00122874      -0.00059261      -0.00000752       0.41583175       0.74251684       0.62715172      -4.89506526 F F F
 Pd            11.77129745       7.55089154      13.60693362       0.00015926       0.00028488       0.00055431       0.25358402      -0.08023233      -0.32521930      -4.20046246 F F F
 Pd            11.48134916       8.34936217      10.78611503       0.00047987       0.00021545       0.00106870       0.20445882      -0.35199776      -0.58300916      -4.98335060 F F F
 Pd             9.28436275      14.69949797      10.11737677       0.00119569       0.00081441      -0.00017894      -0.47255745      -0.15635742      -0.22964455      -4.21289894 F F F
 Pd             8.65849507       7.99485492       6.92385997       0.00217133       0.00063624       0.00142094      -0.58893370       0.92893642      -0.33807259      -4.24616184 F F F
 Pd            12.60116611      11.74260484       8.00270930       0.00138004      -0.00106736       0.00078162       0.01864362       0.64447349       0.17180476      -4.61587691 F F F
 Pd            11.66532494      14.32519108       8.59804756      -0.00221151       0.00101628       0.00062201      -0.12592881       0.42918887      -0.13208639      -4.09216759 F F F
 Pd            13.65223354       9.52575595       9.07300488       0.00002453       0.00158804       0.00033222       0.35591082      -0.15363990       0.60189729      -4.41917400 F F F
 Pd            12.70470143      10.06945652      13.33781261      -0.00063481       0.00508878       0.00194235       0.11428348       0.20909741       0.13120544      -4.37375464 F F F
 Pd             7.36499529       6.28270419      13.05423680      -0.00067862      -0.00137610      -0.00004801      -0.31528834      -0.65026355       0.35098372      -3.71993893 F F F
 Pd             9.14251831       7.76409969      14.13386263       0.00033603      -0.00147128      -0.00044857       0.35885875       0.63929619       0.16789120      -4.35993282 F F F
 Pd             6.02926239      10.01644357      10.12664284       0.00071477       0.00431060      -0.00313155      -0.13647458      -0.65755652       0.21280952      -4.61081037 F F F
 Pd            10.02996703      12.30118934       8.79845040      -0.00272853      -0.00205099      -0.00051042      -0.83248260      -0.81926614       0.78916114      -4.88198102 F F F
 Pd             8.63476211      10.42620908      14.95002649       0.00113258      -0.00185140      -0.00365628      -0.23802453      -0.22845398      -0.49043576      -4.22080708 F F F
 Pd             5.60879776       7.44350878      11.33905708       0.00059696      -0.00115728       0.00156580      -0.57374643       0.12985486       0.35448280      -3.96112223 F F F
 Pd             9.54012027       7.32219965       9.27019437       0.00063370      -0.00114613      -0.00232902      -0.28452584       1.02324543       0.61939718      -4.66933003 F F F
 Pd             6.10043461      11.49258207      14.16055235      -0.00131291       0.00234558       0.00177401      -0.18954889       0.04369146       0.35584831      -3.71332747 F F F
 Pd            10.07512632       6.29643013      11.95909248       0.00080514      -0.00059043      -0.00052341      -1.05861870       0.18974120       0.50367677      -4.50263541 F F F
 Pd            12.07134309      10.71733960       5.67137638      -0.00146347      -0.00148363      -0.00039851      -0.12798735       0.43599518       0.03102231      -4.03565932 F F F
 Pd             7.56923477      12.25080859      10.02947015       0.00311829      -0.00071858       0.00329936       0.31323595       0.56695900      -0.58615073      -4.77244382 F F F
 Pd            11.07171934       9.42771747       8.23378678      -0.00104948      -0.00137872      -0.00167173      -0.71228925       0.22585230      -0.31346204      -5.12390083 F F F
 Pd            14.25128187      10.90508307      11.29406756       0.00135064       0.00239524       0.00070419       0.69847015      -0.41384925       0.19900975      -3.86019344 F F F
 Pd            10.19864110       9.74385796      12.48578880       0.00056130       0.00137937       0.00253920      -0.67267375       0.11960523       0.60165978      -4.96972082 F F F
 Pd             8.90901001       9.94997766       9.81197333      -0.00141834      -0.00260715       0.00026336       0.62692397       0.44010141      -0.40166958      -5.02853244 F F F
 Pd             7.65498799      12.66292418       7.30601182      -0.00198461      -0.00036745      -0.00011227       0.37243529       0.40355613       0.27774478      -4.32344812 F F F
 Pd             9.36177648      10.81237481       6.20424095       0.00069887      -0.00033411       0.00259606      -0.12608692      -0.61427487       0.50836949      -4.36020717 F F F
 Pd            13.02555468       8.43001904       6.72338179       0.00067508       0.00046015       0.00029132       0.15598294      -0.08682027      -0.29977166      -4.08901115 F F F
 Pd            10.66150942      13.01838069       6.48598989      -0.00006158      -0.00066513      -0.00175012       0.40406447       0.16363856      -1.00882915      -3.98566420 F F F
 Pd             8.33188452       5.53446776       7.68267885       0.00237217      -0.00110477       0.00139100       0.19089545      -0.35395865       0.58306117      -3.59723389 F F F
