      55
 Properties=species:S:1:pos:R:3:velocities:R:3:forces:R:3:local_energy:R:1:fix_atoms:S:3 Lattice="19.5718046752       0.0000000000    0.0000000000    0.0000000000   19.9614250672    0.0000000000    0.0000000000    0.0000000000   21.1848089344" temperature=186.06102214 pressure=-162.36668458 time_step=2.0000 time=2000.000000 energy=-201.128920 energy_soap=-57.46626684  energy_2b=-93.90395580 energy_3b=0.00000000 energy_core_pot=0.00000000 energy_vdw=0.00000000 energy_exp=0.00000000 energy_xps=0.00000000 virial="-3.24620828          -2.24827717      0.60791359     -2.24827717      3.47513752      2.71047205      0.60791359      2.71047205     -5.34261068" stress="0.00039222            0.00027165     -0.00007345      0.00027165     -0.00041988     -0.00032749     -0.00007345     -0.00032749      0.00064552" volume=8276.504722 step=1000
 Au            10.02702407      12.41431327      11.38611109      -0.00044858      -0.00028891      -0.00075875      -0.35288935      -0.24812251       0.20030270      -3.48488118 F F F
 Au             5.07989957       8.93715415      12.47275094       0.00066489      -0.00020327      -0.00099224       0.31181877       0.49791198      -0.15678149      -2.71088798 F F F
 Au            10.97758088      14.93966712      11.04150516       0.00018010       0.00070060      -0.00090312       0.19080790       0.25883919      -0.04821627      -2.39913698 F F F
 Au            10.61026446       5.44975970       9.66455410       0.00005687      -0.00042694       0.00024076      -0.00342199      -0.52695025       0.25192707      -2.82563738 F F F
 Au            12.64932450       7.41883483       9.25197272       0.00032889      -0.00007511      -0.00047141       0.30454217       0.40255833       0.04288112      -3.14533328 F F F
 Au             9.36472356      13.02791358      14.21033180       0.00049619      -0.00068886      -0.00128077       0.76750740      -0.08961557      -0.16252238      -2.78726416 F F F
 Au             7.52340088      10.14362711       7.44955944       0.00072705       0.00094805      -0.00096594      -0.41066202      -0.25401159       0.76301352      -3.25866990 F F F
 Au             5.65768746      11.67964998      11.91497655      -0.00057812      -0.00018724       0.00207780       0.29803111      -0.12776092      -0.20495250      -2.88721550 F F F
 Au            12.53938121       5.99312739      11.55546846      -0.00054429      -0.00062274       0.00269235      -0.11800506      -0.22622110      -0.03958218      -2.39557164 F F F
 Au            11.74085217      10.51147504      10.25591215       0.00050926       0.00053382       0.00014839      -0.18522374       0.13487045       0.15605517      -3.44756684 F F F
 Au             9.29820380      14.96718474       6.97923437       0.00063610      -0.00046402       0.00157462      -0.58808992       0.78084276       0.14087991      -2.48670890 F F F
 Au            12.14624100      13.51714660      13.10637743      -0.00005095      -0.00030125      -0.00073517      -0.44001861       0.06226251      -0.06878015      -2.55608918 F F F
 Au            14.55280794      10.82060904       6.66161163       0.00014088      -0.00045955      -0.00102422       0.69308727      -0.25623233       0.11321131      -2.23287215 F F F
 Au            13.56737053       8.65247454      11.72569221      -0.00087542      -0.00040377       0.00015719      -0.21530686      -0.23870048      -0.15074460      -3.07901051 F F F
 Au            11.80124402      11.67704812      15.07537681       0.00079360       0.00040199      -0.00080115      -0.18708144      -0.04699790      -0.00496318      -2.67756340 F F F
 Au            10.93181701       8.46180110       5.07611115      -0.00053279      -0.00097968      -0.00067301       0.11865063      -0.15583192      -0.27649195      -2.54221031 F F F
 Au            10.92155995       6.70657596       7.19511968       0.00147406       0.00175647      -0.00131454      -0.12376995      -0.15716229      -0.09900720      -2.97380628 F F F
 Au             7.69887893       5.49120844      10.45146502      -0.00022458       0.00073429       0.00156934      -0.27398613       0.02622136       0.15713785      -2.85092201 F F F
 Au            12.90544402      13.06627830      10.26391297       0.00084756       0.00023218      -0.00080070       0.05989877      -0.10317047       0.52471736      -2.88994860 F F F
 Au            11.01723437       8.94077037      15.74549545       0.00107923      -0.00110389      -0.00176075       0.76113208      -0.23975090       0.11607433      -2.51428108 F F F
 Au             6.64072214      14.68522420       7.87895224      -0.00050557      -0.00162947       0.00069623       0.10567590       0.02049435       0.18847103      -2.40988810 F F F
 Au             7.66437291      13.72817496      12.24230957      -0.00092955      -0.00101620       0.00184500      -0.21276199      -0.37770890      -0.43647693      -2.94421181 F F F
 Au             6.61544864       7.55442926       8.04013226      -0.00039369       0.00020473       0.00046207      -0.43880915       0.05665761       0.65197211      -2.86356463 F F F
 Au             8.15686072      10.59000848      12.58737486      -0.00020999       0.00163585      -0.00151376      -0.12169113       0.19079125      -0.07972688      -3.57482153 F F F
 Pd             6.76699808       9.14421810      14.57962469       0.00023562       0.00156651       0.00047507      -0.02023291       0.28659657      -0.22414251      -3.94552694 F F F
 Pd             5.76004354      14.01057531      10.30444490      -0.00061669      -0.00003755       0.00115122       0.28073689      -0.12227752       0.36035397      -3.50701860 F F F
 Pd             7.75778401       8.17017570      11.39455416      -0.00086372      -0.00078433      -0.00162249       0.31695139       0.30042690      -0.18839543      -4.83174396 F F F
 Pd            11.74949158       7.40699634      13.60183206      -0.00045001       0.00009028       0.00162479      -0.17695388       0.25973565       0.25805774      -4.23274080 F F F
 Pd            10.73865778       8.22775228      11.15508041       0.00081519       0.00066231       0.00183965      -0.23439206      -0.03373599      -0.01388652      -4.95122510 F F F
 Pd             8.72574786      14.36915617       9.65141806      -0.00143200      -0.00053661       0.00152906      -0.14678265      -0.28085352       0.08319594      -4.48894547 F F F
 Pd             8.59611760       8.00687112       6.29632971      -0.00070374       0.00163939       0.00199968       0.25971169      -0.30905926       0.08132788      -4.15785029 F F F
 Pd            12.50113824      11.76354781       7.96199841       0.00149685       0.00032490      -0.00065545      -0.27636223       0.08039991      -0.13933944      -4.60125488 F F F
 Pd            11.46025794      14.34007591       8.35208594       0.00078060      -0.00068227       0.00083203      -0.07838327      -0.07354283       0.70389210      -4.05308184 F F F
 Pd            14.13777075       9.89865967       9.29484262      -0.00014189       0.00034255       0.00094094      -0.11912591      -0.18146753      -0.28281638      -3.99405013 F F F
 Pd            13.38478629       9.46524658      14.34056670      -0.00092664      -0.00129352       0.00178447      -0.32007452       0.01775769       0.03715382      -3.75802782 F F F
 Pd             6.69971704       6.77643443      13.20576346      -0.00003549       0.00041556      -0.00011002       0.15087741      -0.24789977       0.01321261      -3.84730757 F F F
 Pd             9.13091533       8.17729679      13.87726094      -0.00012975       0.00293445       0.00062362      -0.33667109      -0.27008215      -0.10117807      -4.63809100 F F F
 Pd             6.01698233       9.70671001       9.86670105      -0.00006389       0.00058998      -0.00178390       0.38906215      -0.26366371       0.13288518      -4.37385182 F F F
 Pd             9.85665187      12.00257048       8.55471236       0.00019704       0.00064583      -0.00028108       0.23607256       0.73759684       0.01200360      -4.98804290 F F F
 Pd             9.05802757      10.51582710      15.19651791       0.00079435      -0.00072113       0.00086867      -0.28111498       0.46116450       0.31056447      -4.16852130 F F F
 Pd             5.46431654       7.07125483      10.59525916      -0.00029504      -0.00081140      -0.00304538       0.12297548      -0.07124734      -0.32187190      -3.78443435 F F F
 Pd             9.09792296       7.52290031       9.13093128       0.00080930       0.00072088      -0.00037544      -0.19260373       1.30770514       0.12661665      -4.75524676 F F F
 Pd             6.89777878      11.96783496      14.56584799      -0.00160113      -0.00143426      -0.00108451      -0.26046650       0.05822935      -0.45321741      -3.65033885 F F F
 Pd             9.54808856       6.19554559      12.25156719      -0.00115897       0.00099720       0.00057153       0.23101489      -0.50386914       0.08516444      -4.22758775 F F F
 Pd            12.16548285      10.83548292       5.47812004       0.00026625       0.00046342       0.00035525      -0.32574015      -0.00853831      -0.15043222      -3.99112883 F F F
 Pd             7.20985565      12.05339500       9.41214231       0.00141831       0.00039218       0.00173078       0.09277100       0.22390449       0.12291503      -4.67808537 F F F
 Pd            10.53410846       9.51434114       7.94885048      -0.00044947      -0.00128295      -0.00055340       0.26531320      -0.31519159      -0.56451847      -5.12168777 F F F
 Pd            13.32933305      11.24488785      12.35437299      -0.00169883       0.00058442       0.00075267       0.00230593       0.18734519      -0.04379335      -4.16354063 F F F
 Pd            10.88158466      10.09264887      13.11058055       0.00091531      -0.00016101       0.00082692       0.31020174       0.21332181      -0.66829126      -5.01847725 F F F
 Pd             8.98204413      10.11143003      10.09252452      -0.00008597      -0.00067108      -0.00092829      -0.37073590      -0.36747840       0.01253480      -4.85482287 F F F
 Pd             7.99181801      12.64992388       6.77761173      -0.00129879      -0.00122395      -0.00110838       0.02547733      -0.18795108      -0.24345406      -4.21055902 F F F
 Pd             9.46394365      10.64354321       5.65672921      -0.00101592      -0.00057834      -0.00197792       0.01261247       0.22749307       0.14862706      -4.28240696 F F F
 Pd            12.92093914       8.65937482       6.92326407       0.00135072      -0.00040699      -0.00123584       0.08751623       0.28222788       0.29526730      -4.18154906 F F F
 Pd            10.78105136      12.98178088       6.20885190      -0.00128460      -0.00120246       0.00068920       0.19501461      -0.65733448      -0.48637822      -4.11400871 F F F
 Pd             8.39260760       5.40452878       7.85513669       0.00064244       0.00237914       0.00050953       0.22159017      -0.13292503      -0.48045512      -3.61970240 F F F
