      55
 Properties=species:S:1:pos:R:3:velocities:R:3:forces:R:3:local_energy:R:1:fix_atoms:S:3 Lattice="21.3561349059       0.0000000000    0.0000000000    0.0000000000   21.3561349059    0.0000000000    0.0000000000    0.0000000000   18.0300000000" temperature=0.00000000 pressure=2.76196964 time_step=1.0000 time=17.000000 energy=-200.568869 energy_soap=-52.94761758  energy_2b=-97.86255394 energy_3b=0.00000000 energy_core_pot=0.00000000 energy_vdw=0.00000000 energy_exp=0.00000000 energy_xps=0.00000000 virial="-0.00556744          -0.02403877      0.00141298     -0.02403877     -0.01723199     -0.00651714      0.00141298     -0.00651714      0.06532702" stress="0.00000068            0.00000292     -0.00000017      0.00000292      0.00000210      0.00000079     -0.00000017      0.00000079     -0.00000794" volume=8223.203501 step=17
 Au             9.27757707       9.26223907       7.01363283       0.00000000       0.00000000       0.00000000       0.00280685       0.00456105       0.00417144      -3.43691642 F F F
 Pd             7.94587248       7.91895023       5.12994865       0.00000000       0.00000000       0.00000000      -0.00210118      -0.00162840      -0.00091266      -3.56721107 F F F
 Pd             9.28193432       6.49385142       7.03971191       0.00000000       0.00000000       0.00000000       0.00024382      -0.00175818      -0.00009748      -4.10128366 F F F
 Au             6.40580263       9.22840092       7.02936945       0.00000000       0.00000000       0.00000000      -0.00075189       0.00086896       0.00155758      -2.78860285 F F F
 Pd             7.93631922       7.92908005      12.88168309       0.00000000       0.00000000       0.00000000      -0.00058735      -0.00109081      -0.00049771      -3.54862601 F F F
 Au             9.27965258       9.26718689      11.00622519       0.00000000       0.00000000       0.00000000       0.00144949      -0.00005699      -0.00175343      -3.41578591 F F F
 Pd             7.81719567       7.80625988       9.02210573       0.00000000       0.00000000       0.00000000       0.00105924      -0.00013134       0.00026761      -4.31926699 F F F
 Au             9.24249162       6.38249487      11.02791745       0.00000000       0.00000000       0.00000000       0.00045724      -0.00045422       0.00090357      -2.80717993 F F F
 Pd             6.49595306       9.29128153      10.97509240       0.00000000       0.00000000       0.00000000      -0.00075988       0.00013259      -0.00074048      -4.08151249 F F F
 Pd             9.26321904      14.86238393       7.06291275       0.00000000       0.00000000       0.00000000      -0.00029605      -0.00004183       0.00013445      -4.14561915 F F F
 Pd             7.96385164      13.45325894       5.12595481       0.00000000       0.00000000       0.00000000       0.00011807      -0.00005030      -0.00428574      -3.57058219 F F F
 Au             9.27593532      12.07831532       7.01149028       0.00000000       0.00000000       0.00000000       0.00015103      -0.00436003       0.00127618      -3.43446934 F F F
 Au             7.87202542      10.68317734       4.93560422       0.00000000       0.00000000       0.00000000      -0.00067126      -0.00046704      -0.00060380      -2.78304055 F F F
 Au             6.40451659      12.16811822       7.01649879       0.00000000       0.00000000       0.00000000       0.00093388       0.00165890      -0.00161137      -2.78598885 F F F
 Pd             7.96345736      13.43596534      12.84369876       0.00000000       0.00000000       0.00000000       0.00182015      -0.00157483       0.00270088      -3.66907393 F F F
 Pd             9.27496722      14.82822944      10.96230905       0.00000000       0.00000000       0.00000000       0.00003110      -0.00124118       0.00070417      -4.19884122 F F F
 Pd             7.83206399      13.54879576       9.02973279       0.00000000       0.00000000       0.00000000      -0.00039720      -0.00002030      -0.00068821      -4.41434052 F F F
 Au             7.81955493      10.69749478      13.02850063       0.00000000       0.00000000       0.00000000      -0.00115303      -0.00056527       0.00089528      -2.88321987 F F F
 Pd             9.27914108      12.06039938      10.99653049       0.00000000       0.00000000       0.00000000      -0.00132731      -0.00057785       0.00230371      -4.93386026 F F F
 Au             7.86763373      10.69364088       9.01180608       0.00000000       0.00000000       0.00000000       0.00383057       0.00095073      -0.00164627      -3.44884081 F F F
 Pd             6.51564203      12.12751869      10.96738320       0.00000000       0.00000000       0.00000000       0.00083396       0.00193269       0.00164992      -4.13620220 F F F
 Pd             5.19518225      10.71141392       9.03934319       0.00000000       0.00000000       0.00000000      -0.00099749       0.00424374      -0.00041732      -3.56817216 F F F
 Au            14.91181430       9.25464299       7.01626181       0.00000000       0.00000000       0.00000000       0.00043518       0.00021839      -0.00006759      -2.84102890 F F F
 Au            13.42624824       7.88617928       5.10277465       0.00000000       0.00000000       0.00000000      -0.00022266      -0.00093739      -0.00234810      -2.39830638 F F F
 Pd            12.08571888       9.29349370       7.02503147       0.00000000       0.00000000       0.00000000      -0.00284576       0.00051574       0.00288151      -4.99895231 F F F
 Pd            10.68179375       7.91512222       5.07054085       0.00000000       0.00000000       0.00000000       0.00034137       0.00012812      -0.00145719      -4.13819898 F F F
 Pd            12.09186092       6.49952148       7.05401482       0.00000000       0.00000000       0.00000000       0.00157553       0.00036812      -0.00046793      -4.12653790 F F F
 Pd            13.43127560       7.93119624      12.86841014       0.00000000       0.00000000       0.00000000       0.00071537      -0.00077599       0.00196220      -3.58932065 F F F
 Au            14.89652998       9.24240993      10.99589733       0.00000000       0.00000000       0.00000000       0.00013696       0.00073379       0.00027959      -2.91237167 F F F
 Pd            13.50001955       7.85988978       9.00636542       0.00000000       0.00000000       0.00000000      -0.00032922       0.00084916       0.00007130      -4.42166811 F F F
 Au            10.71096931       7.86104594      13.03748614       0.00000000       0.00000000       0.00000000      -0.00092335      -0.00008372       0.00075803      -2.85180406 F F F
 Pd            12.08286043       9.28323446      11.01204642       0.00000000       0.00000000       0.00000000      -0.00135096      -0.00041505      -0.00171497      -4.91137462 F F F
 Au            10.70059331       7.86098937       9.01496824       0.00000000       0.00000000       0.00000000       0.00148271       0.00587962       0.00041696      -3.47470633 F F F
 Pd            12.10174077       6.50550011      10.96381401       0.00000000       0.00000000       0.00000000       0.00136536       0.00008221       0.00042490      -4.07474344 F F F
 Au            10.68275401       5.10304650       9.00087424       0.00000000       0.00000000       0.00000000       0.00113324      -0.00191123      -0.00011059      -2.38512150 F F F
 Pd            13.36925096      13.41609215       5.18110519       0.00000000       0.00000000       0.00000000      -0.00006423      -0.00052294       0.00113480      -3.67777410 F F F
 Pd            14.82539160      12.09397156       7.04930935       0.00000000       0.00000000       0.00000000      -0.00074240      -0.00003510      -0.00048542      -4.13010058 F F F
 Au            13.45549059      10.69886109       4.99615521       0.00000000       0.00000000       0.00000000      -0.00067206       0.00256307      -0.00136670      -2.88107836 F F F
 Pd            12.07768237      14.83810534       7.07922332       0.00000000       0.00000000       0.00000000      -0.00047474      -0.00055330       0.00225967      -4.17184739 F F F
 Pd            10.69316340      13.45933384       5.10278792       0.00000000       0.00000000       0.00000000       0.00246446       0.00018633      -0.00092376      -4.17180587 F F F
 Pd            12.08083215      12.06440061       7.05521932       0.00000000       0.00000000       0.00000000       0.00148160       0.00013653      -0.00256839      -4.96433575 F F F
 Pd            10.69264330      10.69420421       4.98099563       0.00000000       0.00000000       0.00000000      -0.00161257       0.00005052      -0.00031270      -4.42866648 F F F
 Au            16.19831475      10.69239364       9.00661488       0.00000000       0.00000000       0.00000000      -0.00063444      -0.00064450      -0.00027661      -2.40343629 F F F
 Au            13.45752575      13.48834786      12.93923398       0.00000000       0.00000000       0.00000000       0.00077489       0.00036867      -0.00145204      -2.37819434 F F F
 Au            13.62087527      13.59342895       8.99866484       0.00000000       0.00000000       0.00000000       0.00119875      -0.00126955      -0.00120250      -3.19418809 F F F
 Au            13.48603233      10.66881188      13.05194982       0.00000000       0.00000000       0.00000000      -0.00154137       0.00174252       0.00143599      -2.80927816 F F F
 Pd            14.86259809      12.08713583      10.97870769       0.00000000       0.00000000       0.00000000       0.00008291      -0.00062310       0.00100473      -4.05396746 F F F
 Pd            13.47324727      10.67835000       9.00667444       0.00000000       0.00000000       0.00000000       0.00103119      -0.00137617       0.00018927      -4.93348897 F F F
 Pd            10.63536827      16.14872371       9.00980279       0.00000000       0.00000000       0.00000000      -0.00325777      -0.00319456      -0.00014863      -3.63817519 F F F
 Pd            10.65964606      13.48042770      12.93804673       0.00000000       0.00000000       0.00000000       0.00094284       0.00000347       0.00009216      -4.08835379 F F F
 Pd            12.08693515      14.86961021      10.94101550       0.00000000       0.00000000       0.00000000      -0.00109803      -0.00007303      -0.00155936      -4.11030220 F F F
 Au            10.66777569      13.46805053       9.01741190       0.00000000       0.00000000       0.00000000      -0.00145828       0.00536265      -0.00035163      -3.50053694 F F F
 Au            10.64371704      10.69665921      13.14913460       0.00000000       0.00000000       0.00000000      -0.00176081       0.00024390       0.00076500      -3.02235090 F F F
 Au            12.08294958      12.06969724      11.00758256       0.00000000       0.00000000       0.00000000       0.00235145       0.00078209       0.00320453      -3.44980469 F F F
 Au            10.71010199      10.66237557       9.00942704       0.00000000       0.00000000       0.00000000      -0.00321796      -0.00812939      -0.00337683      -3.39841246 F F F
