      55
 Properties=species:S:1:pos:R:3:velocities:R:3:forces:R:3:local_energy:R:1:fix_atoms:S:3 Lattice="17.9353561800       0.0000000000    0.0000000000    0.0000000000   17.9353561800    0.0000000000    0.0000000000    0.0000000000   17.9353561800" temperature=0.00000000 pressure=-3.70486331 time_step=1.0000 time=23.000000 energy=-209.952242 energy_soap=-54.54532458  energy_2b=-99.21402811 energy_3b=0.00000000 energy_core_pot=0.00000000 energy_vdw=0.00000000 energy_exp=0.00000000 energy_xps=0.00000000 virial="-0.09090453          -0.00648160      0.00714793     -0.00648160      0.03281911      0.01816654      0.00714793      0.01816654      0.01806211" stress="0.00001576            0.00000112     -0.00000124      0.00000112     -0.00000569     -0.00000315     -0.00000124     -0.00000315     -0.00000313" volume=5769.391593 step=23
 Au             6.97191712       6.99878580       4.92979740       0.00000000       0.00000000       0.00000000       0.00031993      -0.00044801      -0.00087106      -2.84614540 F F F
 Au             6.96879599       4.94456275       7.00152123       0.00000000       0.00000000       0.00000000       0.00075043      -0.00077855      -0.00056408      -2.84140158 F F F
 Pd             5.05779649       7.01591614       7.03418611       0.00000000       0.00000000       0.00000000       0.00150179      -0.00040890      -0.00002208      -4.13135240 F F F
 Pd             7.02276151       7.01531376      12.86473182       0.00000000       0.00000000       0.00000000       0.00110274       0.00015016       0.00031751      -4.20030824 F F F
 Pd             5.13884952       5.11987715       8.99920234       0.00000000       0.00000000       0.00000000       0.00179863      -0.00010119       0.00052553      -3.67830151 F F F
 Pd             7.00169247       7.00785589       8.97286384       0.00000000       0.00000000       0.00000000       0.00093713       0.00025050      -0.00042246      -4.99337415 F F F
 Pd             7.04296599       5.07673639      10.90467069       0.00000000       0.00000000       0.00000000       0.00120916       0.00036471       0.00039033      -4.23284765 F F F
 Pd             5.07133264       7.03553872      10.90392838       0.00000000       0.00000000       0.00000000       0.00149973       0.00132342      -0.00071263      -4.21904387 F F F
 Au             7.00760168      12.99194565       6.99845324       0.00000000       0.00000000       0.00000000       0.00034562       0.00067255       0.00078180      -2.84242016 F F F
 Pd             5.12774934       8.96531485       5.11826393       0.00000000       0.00000000       0.00000000       0.00117229      -0.00007909      -0.00037466      -3.65329272 F F F
 Pd             7.03413578      10.89626253       5.02021498       0.00000000       0.00000000       0.00000000       0.00087380       0.00030495      -0.00051933      -4.11207953 F F F
 Pd             6.99204112       8.95604842       7.00651911       0.00000000       0.00000000       0.00000000       0.00058548      -0.00006219      -0.00054909      -4.95710987 F F F
 Au             4.98918934      10.94619727       6.96757880       0.00000000       0.00000000       0.00000000       0.00098799       0.00069507      -0.00148524      -2.86165960 F F F
 Au             5.06549895      12.86215672       9.00840607       0.00000000       0.00000000       0.00000000      -0.00109917      -0.00176478       0.00046742      -2.40133451 F F F
 Pd             7.01816008      12.88996645      10.93427649       0.00000000       0.00000000       0.00000000      -0.00082744      -0.00044208       0.00018609      -4.15812048 F F F
 Pd             5.12819465       8.93552048      12.82289652       0.00000000       0.00000000       0.00000000       0.00210602      -0.00072936       0.00155326      -3.66105581 F F F
 Au             6.97825057      10.96329298      12.96751306       0.00000000       0.00000000       0.00000000       0.00032419       0.00061941       0.00102752      -2.91903130 F F F
 Au             4.89494916       8.96958310       8.97210262       0.00000000       0.00000000       0.00000000       0.00030246       0.00076712      -0.00118885      -3.18229432 F F F
 Pd             6.99009131      10.93241980       8.98231204       0.00000000       0.00000000       0.00000000       0.00016611       0.00010662      -0.00021897      -4.97513436 F F F
 Pd             7.00996159       8.97131545      10.93751389       0.00000000       0.00000000       0.00000000       0.00093072       0.00044513      -0.00005973      -5.01410274 F F F
 Pd             5.05088115      10.89360966      10.95032623       0.00000000       0.00000000       0.00000000       0.00060216      -0.00158068       0.00084096      -4.14981667 F F F
 Pd            12.89447863       7.03657895       7.01641666       0.00000000       0.00000000       0.00000000      -0.00130629      -0.00077570       0.00119852      -4.13511112 F F F
 Au             8.98229938       5.03987085       5.03680452       0.00000000       0.00000000       0.00000000       0.00005602       0.00013188      -0.00157983      -2.26426203 F F F
 Pd            10.92117142       7.03855423       5.02099682       0.00000000       0.00000000       0.00000000      -0.00028776       0.00041187      -0.00009390      -4.10929705 F F F
 Au            10.98437476       4.95642434       6.96111803       0.00000000       0.00000000       0.00000000      -0.00086014      -0.00076745      -0.00114489      -2.83878325 F F F
 Au             8.96731488       6.99216879       6.99469665       0.00000000       0.00000000       0.00000000      -0.00008760      -0.00044254      -0.00055530      -3.49544863 F F F
 Au            12.86087420       5.05943877       8.96107081       0.00000000       0.00000000       0.00000000      -0.00264542      -0.00231373       0.00022756      -2.40686391 F F F
 Au            12.95832154       6.99106591      10.94724345       0.00000000       0.00000000       0.00000000      -0.00123562      -0.00129655      -0.00066851      -2.90548999 F F F
 Pd             8.96280233       5.14467822      12.79682436       0.00000000       0.00000000       0.00000000       0.00008418       0.00052535       0.00147268      -3.71490627 F F F
 Pd            10.89440099       7.02671104      12.88173874       0.00000000       0.00000000       0.00000000      -0.00049041       0.00072829      -0.00005823      -4.17599023 F F F
 Pd             8.96266969       4.98065721       8.99073831       0.00000000       0.00000000       0.00000000      -0.00010429      -0.00079550      -0.00066916      -4.41514805 F F F
 Pd            10.93370625       7.00743454       8.96944273       0.00000000       0.00000000       0.00000000      -0.00101569      -0.00069747      -0.00006335      -5.03119064 F F F
 Pd            10.87831841       5.06122390      10.91293849       0.00000000       0.00000000       0.00000000      -0.00173189      -0.00052906       0.00048887      -4.16387546 F F F
 Pd             8.96514752       7.01821351      10.92158384       0.00000000       0.00000000       0.00000000      -0.00005577       0.00035572       0.00006771      -5.00329452 F F F
 Pd            12.80149298       8.94462036       5.12925670       0.00000000       0.00000000       0.00000000      -0.00003972      -0.00021264       0.00158818      -3.68549599 F F F
 Au            12.97895739      10.93403803       6.99273309       0.00000000       0.00000000       0.00000000      -0.00052709       0.00012211       0.00105224      -2.93915941 F F F
 Pd             8.98811434      12.80636819       5.09351993       0.00000000       0.00000000       0.00000000       0.00020517       0.00023425       0.00012285      -3.61119977 F F F
 Pd            10.91583134      12.89898945       7.02048500       0.00000000       0.00000000       0.00000000      -0.00087029       0.00033661       0.00054785      -4.09716536 F F F
 Pd             8.96893150       8.97137846       4.95757002       0.00000000       0.00000000       0.00000000      -0.00027707      -0.00025312      -0.00076511      -4.44390063 F F F
 Pd            10.90978734      10.88102236       5.04042818       0.00000000       0.00000000       0.00000000      -0.00038551      -0.00051899       0.00064523      -4.16508782 F F F
 Pd            10.93509026       8.95543053       7.01188285       0.00000000       0.00000000       0.00000000      -0.00068277      -0.00002198       0.00051076      -4.97994612 F F F
 Au             8.95251174      10.92753158       7.00287674       0.00000000       0.00000000       0.00000000      -0.00032686       0.00024889       0.00008444      -3.53121054 F F F
 Pd            12.83497241      12.84262252       8.96956420       0.00000000       0.00000000       0.00000000      -0.00069384       0.00104776      -0.00011675      -3.60410051 F F F
 Pd            12.81251697       8.95500310      12.80655074       0.00000000       0.00000000       0.00000000       0.00009163      -0.00004373      -0.00182724      -3.65826005 F F F
 Pd            12.96347535       8.95333252       8.97327831       0.00000000       0.00000000       0.00000000      -0.00073954      -0.00038105       0.00044134      -4.46673272 F F F
 Pd            12.89972653      10.90853435      10.92019156       0.00000000       0.00000000       0.00000000      -0.00031880       0.00044834      -0.00094320      -4.09768971 F F F
 Pd             8.96275664      12.83836319      12.80772945       0.00000000       0.00000000       0.00000000      -0.00002594       0.00060878      -0.00042039      -3.60663771 F F F
 Pd             8.95350691      12.97633208       8.99318512       0.00000000       0.00000000       0.00000000      -0.00031061       0.00093921       0.00092168      -4.43884579 F F F
 Au            10.93033872      13.00424142      10.93709398       0.00000000       0.00000000       0.00000000       0.00008671       0.00098138       0.00010962      -2.88876269 F F F
 Au             8.95691022       8.96338583      13.04379999       0.00000000       0.00000000       0.00000000       0.00003683       0.00095700       0.00126680      -3.14327407 F F F
 Au            10.95653704      10.94531457      12.95983987       0.00000000       0.00000000       0.00000000       0.00037282       0.00053005      -0.00059862      -2.90185555 F F F
 Au             8.94970387       8.96159205       8.98756261       0.00000000       0.00000000       0.00000000       0.00003576       0.00019471      -0.00039572      -3.52932004 F F F
 Au            10.94281199      10.92873321       8.98341109       0.00000000       0.00000000       0.00000000      -0.00064662       0.00053058       0.00017406      -3.49789378 F F F
 Pd            10.91900306       8.95314894      10.93847782       0.00000000       0.00000000       0.00000000      -0.00075449       0.00011152      -0.00025812      -4.99099250 F F F
 Pd             8.96062177      10.93107188      10.94396536       0.00000000       0.00000000       0.00000000      -0.00013887       0.00030044       0.00013569      -4.98482307 F F F
