      79
 Properties=species:S:1:pos:R:3:velocities:R:3:forces:R:3:local_energy:R:1:fix_atoms:S:3 Lattice="35.3561349059       0.0000000000    0.0000000000    0.0000000000   35.3561349059    0.0000000000    0.0000000000    0.0000000000   36.0450000000" temperature=0.00000000 pressure=-0.81816193 time_step=1.0000 time=14.000000 energy=-291.587831 energy_soap=-69.15109663  energy_2b=-158.07785629 energy_3b=0.00000000 energy_core_pot=0.00000000 energy_vdw=0.00000000 energy_exp=0.00000000 energy_xps=0.00000000 virial="-0.17938249          -0.00000000     -0.00000000     -0.00000000     -0.17938249      0.00000000     -0.00000000      0.00000000      0.28973707" stress="0.00000398            0.00000000      0.00000000      0.00000000      0.00000398     -0.00000000      0.00000000     -0.00000000     -0.00000643" volume=45058.278450 step=14
 Au            16.24464338      16.24464338      16.02434714       0.00000000       0.00000000       0.00000000      -0.00008842      -0.00008842      -0.00018055      -3.62365532 F F F
 Pd            14.87780558      14.87780558      14.05655079       0.00000000       0.00000000       0.00000000       0.00047518       0.00047518      -0.00186984      -4.04025058 F F F
 Au            16.26344828      16.26344828      12.14585182       0.00000000       0.00000000       0.00000000       0.00052667       0.00052667      -0.00200092      -2.60998870 F F F
 Au            16.29760591      13.29928844      15.90399676       0.00000000       0.00000000       0.00000000       0.00022533       0.00090213      -0.00117820      -3.21820605 F F F
 Au            13.29928844      16.29760591      15.90399676       0.00000000       0.00000000       0.00000000       0.00090213       0.00022533      -0.00117820      -3.21820605 F F F
 Au            13.51215773      13.51215773      16.02567253       0.00000000       0.00000000       0.00000000       0.00143109       0.00143109      -0.00105820      -2.60819723 F F F
 Au            16.26344828      16.26344828      23.89914818       0.00000000       0.00000000       0.00000000       0.00052667       0.00052667       0.00200092      -2.60998870 F F F
 Pd            14.87780558      14.87780558      21.98844921       0.00000000       0.00000000       0.00000000       0.00047518       0.00047518       0.00186984      -4.04025058 F F F
 Au            16.24464338      16.24464338      20.02065286       0.00000000       0.00000000       0.00000000      -0.00008842      -0.00008842       0.00018055      -3.62365532 F F F
 Pd            14.90294469      14.90294469      18.02250000       0.00000000       0.00000000       0.00000000       0.00088180       0.00088180      -0.00000000      -4.90959547 F F F
 Au            16.29760591      13.29928844      20.14100324       0.00000000       0.00000000       0.00000000       0.00022533       0.00090213       0.00117820      -3.21820605 F F F
 Pd            14.92444578      12.19518859      18.02250000       0.00000000       0.00000000       0.00000000       0.00054715       0.00233122       0.00000000      -3.81887596 F F F
 Au            13.29928844      16.29760591      20.14100324       0.00000000       0.00000000       0.00000000       0.00090213       0.00022533       0.00117820      -3.21820605 F F F
 Pd            12.19518859      14.92444578      18.02250000       0.00000000       0.00000000       0.00000000       0.00233122       0.00054715       0.00000000      -3.81887596 F F F
 Au            13.51215773      13.51215773      20.01932747       0.00000000       0.00000000       0.00000000       0.00143109       0.00143109       0.00105820      -2.60819723 F F F
 Au            16.29760591      22.05684647      15.90399676       0.00000000       0.00000000       0.00000000       0.00022533      -0.00090213      -0.00117820      -3.21820605 F F F
 Pd            14.87780558      20.47832932      14.05655079       0.00000000       0.00000000       0.00000000       0.00047518      -0.00047518      -0.00186984      -4.04025058 F F F
 Au            16.24464338      19.11149153      16.02434714       0.00000000       0.00000000       0.00000000      -0.00008842       0.00008842      -0.00018055      -3.62365532 F F F
 Pd            14.78357700      17.67806745      14.01577278       0.00000000       0.00000000       0.00000000       0.00043373      -0.00000000      -0.00197472      -4.44992788 F F F
 Au            16.26344828      19.09268663      12.14585182       0.00000000       0.00000000       0.00000000       0.00052667      -0.00052667      -0.00200092      -2.60998870 F F F
 Au            13.51215773      21.84397718      16.02567253       0.00000000       0.00000000       0.00000000       0.00143109      -0.00143109      -0.00105820      -2.60819723 F F F
 Au            13.29928844      19.05852900      15.90399676       0.00000000       0.00000000       0.00000000       0.00090213      -0.00022533      -0.00117820      -3.21820605 F F F
 Pd            14.92444578      23.16094632      18.02250000       0.00000000       0.00000000       0.00000000       0.00054715      -0.00233122      -0.00000000      -3.81887596 F F F
 Pd            14.87780558      20.47832932      21.98844921       0.00000000       0.00000000       0.00000000       0.00047518      -0.00047518       0.00186984      -4.04025058 F F F
 Au            16.29760591      22.05684647      20.14100324       0.00000000       0.00000000       0.00000000       0.00022533      -0.00090213       0.00117820      -3.21820605 F F F
 Pd            14.90294469      20.45319022      18.02250000       0.00000000       0.00000000       0.00000000       0.00088180      -0.00088180      -0.00000000      -4.90959547 F F F
 Au            16.26344828      19.09268663      23.89914818       0.00000000       0.00000000       0.00000000       0.00052667      -0.00052667       0.00200092      -2.60998870 F F F
 Pd            14.78357700      17.67806745      22.02922722       0.00000000       0.00000000       0.00000000       0.00043373      -0.00000000       0.00197472      -4.44992788 F F F
 Au            16.24464338      19.11149153      20.02065286       0.00000000       0.00000000       0.00000000      -0.00008842       0.00008842       0.00018055      -3.62365532 F F F
 Pd            14.80945711      17.67806745      18.02250000       0.00000000       0.00000000       0.00000000       0.00027706       0.00000000      -0.00000000      -5.01482450 F F F
 Au            13.51215773      21.84397718      20.01932747       0.00000000       0.00000000       0.00000000       0.00143109      -0.00143109       0.00105820      -2.60819723 F F F
 Pd            12.19518859      20.43168913      18.02250000       0.00000000       0.00000000       0.00000000       0.00233122      -0.00054715       0.00000000      -3.81887596 F F F
 Au            13.29928844      19.05852900      20.14100324       0.00000000       0.00000000       0.00000000       0.00090213      -0.00022533       0.00117820      -3.21820605 F F F
 Pd            12.10291110      17.67806745      18.02250000       0.00000000       0.00000000       0.00000000       0.00075811       0.00000000       0.00000000      -4.05084196 F F F
 Au            22.05684647      16.29760591      15.90399676       0.00000000       0.00000000       0.00000000      -0.00090213       0.00022533      -0.00117820      -3.21820605 F F F
 Pd            20.47832932      14.87780558      14.05655079       0.00000000       0.00000000       0.00000000      -0.00047518       0.00047518      -0.00186984      -4.04025058 F F F
 Au            21.84397718      13.51215773      16.02567253       0.00000000       0.00000000       0.00000000      -0.00143109       0.00143109      -0.00105820      -2.60819723 F F F
 Au            19.11149153      16.24464338      16.02434714       0.00000000       0.00000000       0.00000000       0.00008842      -0.00008842      -0.00018055      -3.62365532 F F F
 Pd            17.67806745      14.78357700      14.01577278       0.00000000       0.00000000       0.00000000       0.00000000       0.00043373      -0.00197472      -4.44992788 F F F
 Au            19.09268663      16.26344828      12.14585182       0.00000000       0.00000000       0.00000000      -0.00052667       0.00052667      -0.00200092      -2.60998870 F F F
 Au            19.05852900      13.29928844      15.90399676       0.00000000       0.00000000       0.00000000      -0.00022533       0.00090213      -0.00117820      -3.21820605 F F F
 Pd            23.16094632      14.92444578      18.02250000       0.00000000       0.00000000       0.00000000      -0.00233122       0.00054715       0.00000000      -3.81887596 F F F
 Pd            20.47832932      14.87780558      21.98844921       0.00000000       0.00000000       0.00000000      -0.00047518       0.00047518       0.00186984      -4.04025058 F F F
 Au            22.05684647      16.29760591      20.14100324       0.00000000       0.00000000       0.00000000      -0.00090213       0.00022533       0.00117820      -3.21820605 F F F
 Pd            20.45319022      14.90294469      18.02250000       0.00000000       0.00000000       0.00000000      -0.00088180       0.00088180      -0.00000000      -4.90959547 F F F
 Au            21.84397718      13.51215773      20.01932747       0.00000000       0.00000000       0.00000000      -0.00143109       0.00143109       0.00105820      -2.60819723 F F F
 Pd            20.43168913      12.19518859      18.02250000       0.00000000       0.00000000       0.00000000      -0.00054715       0.00233122       0.00000000      -3.81887596 F F F
 Au            19.09268663      16.26344828      23.89914818       0.00000000       0.00000000       0.00000000      -0.00052667       0.00052667       0.00200092      -2.60998870 F F F
 Pd            17.67806745      14.78357700      22.02922722       0.00000000       0.00000000       0.00000000      -0.00000000       0.00043373       0.00197472      -4.44992788 F F F
 Au            19.11149153      16.24464338      20.02065286       0.00000000       0.00000000       0.00000000       0.00008842      -0.00008842       0.00018055      -3.62365532 F F F
 Pd            17.67806745      14.80945711      18.02250000       0.00000000       0.00000000       0.00000000       0.00000000       0.00027706       0.00000000      -5.01482450 F F F
 Au            19.05852900      13.29928844      20.14100324       0.00000000       0.00000000       0.00000000      -0.00022533       0.00090213       0.00117820      -3.21820605 F F F
 Pd            17.67806745      12.10291110      18.02250000       0.00000000       0.00000000       0.00000000       0.00000000       0.00075811      -0.00000000      -4.05084196 F F F
 Au            21.84397718      21.84397718      16.02567253       0.00000000       0.00000000       0.00000000      -0.00143109      -0.00143109      -0.00105820      -2.60819723 F F F
 Pd            20.47832932      20.47832932      14.05655079       0.00000000       0.00000000       0.00000000      -0.00047518      -0.00047518      -0.00186984      -4.04025058 F F F
 Au            22.05684647      19.05852900      15.90399676       0.00000000       0.00000000       0.00000000      -0.00090213      -0.00022533      -0.00117820      -3.21820605 F F F
 Pd            20.57255790      17.67806745      14.01577278       0.00000000       0.00000000       0.00000000      -0.00043373      -0.00000000      -0.00197472      -4.44992788 F F F
 Au            19.05852900      22.05684647      15.90399676       0.00000000       0.00000000       0.00000000      -0.00022533      -0.00090213      -0.00117820      -3.21820605 F F F
 Pd            17.67806745      20.57255790      14.01577278       0.00000000       0.00000000       0.00000000      -0.00000000      -0.00043373      -0.00197472      -4.44992788 F F F
 Au            19.11149153      19.11149153      16.02434714       0.00000000       0.00000000       0.00000000       0.00008842       0.00008842      -0.00018055      -3.62365532 F F F
 Pd            17.67806745      17.67806745      14.10743998       0.00000000       0.00000000       0.00000000      -0.00000000      -0.00000000      -0.00170089      -4.96740010 F F F
 Au            19.09268663      19.09268663      12.14585182       0.00000000       0.00000000       0.00000000      -0.00052667      -0.00052667      -0.00200092      -2.60998870 F F F
 Pd            23.16094632      20.43168913      18.02250000       0.00000000       0.00000000       0.00000000      -0.00233122      -0.00054715      -0.00000000      -3.81887596 F F F
 Pd            23.25322381      17.67806745      18.02250000       0.00000000       0.00000000       0.00000000      -0.00075811       0.00000000      -0.00000000      -4.05084196 F F F
 Pd            20.43168913      23.16094632      18.02250000       0.00000000       0.00000000       0.00000000      -0.00054715      -0.00233122       0.00000000      -3.81887596 F F F
 Pd            20.47832932      20.47832932      21.98844921       0.00000000       0.00000000       0.00000000      -0.00047518      -0.00047518       0.00186984      -4.04025058 F F F
 Au            21.84397718      21.84397718      20.01932747       0.00000000       0.00000000       0.00000000      -0.00143109      -0.00143109       0.00105820      -2.60819723 F F F
 Pd            20.45319022      20.45319022      18.02250000       0.00000000       0.00000000       0.00000000      -0.00088180      -0.00088180      -0.00000000      -4.90959547 F F F
 Pd            20.57255790      17.67806745      22.02922722       0.00000000       0.00000000       0.00000000      -0.00043373      -0.00000000       0.00197472      -4.44992788 F F F
 Au            22.05684647      19.05852900      20.14100324       0.00000000       0.00000000       0.00000000      -0.00090213      -0.00022533       0.00117820      -3.21820605 F F F
 Pd            20.54667780      17.67806745      18.02250000       0.00000000       0.00000000       0.00000000      -0.00027706       0.00000000      -0.00000000      -5.01482450 F F F
 Pd            17.67806745      23.25322381      18.02250000       0.00000000       0.00000000       0.00000000       0.00000000      -0.00075811       0.00000000      -4.05084196 F F F
 Pd            17.67806745      20.57255790      22.02922722       0.00000000       0.00000000       0.00000000       0.00000000      -0.00043373       0.00197472      -4.44992788 F F F
 Au            19.05852900      22.05684647      20.14100324       0.00000000       0.00000000       0.00000000      -0.00022533      -0.00090213       0.00117820      -3.21820605 F F F
 Pd            17.67806745      20.54667780      18.02250000       0.00000000       0.00000000       0.00000000      -0.00000000      -0.00027706       0.00000000      -5.01482450 F F F
 Au            19.09268663      19.09268663      23.89914818       0.00000000       0.00000000       0.00000000      -0.00052667      -0.00052667       0.00200092      -2.60998870 F F F
 Pd            17.67806745      17.67806745      21.93756002       0.00000000       0.00000000       0.00000000      -0.00000000      -0.00000000       0.00170089      -4.96740010 F F F
 Au            19.11149153      19.11149153      20.02065286       0.00000000       0.00000000       0.00000000       0.00008842       0.00008842       0.00018055      -3.62365532 F F F
 Pd            17.67806745      17.67806745      18.02250000       0.00000000       0.00000000       0.00000000      -0.00000000       0.00000000       0.00000000      -5.05352075 F F F
