      50
 Properties=species:S:1:pos:R:3:velocities:R:3:forces:R:3:local_energy:R:1:fix_atoms:S:3 Lattice="9.9905032156        0.0000000000    0.0000000000    0.0000000000    9.9905032156    0.0000000000    0.0000000000    0.0000000000    9.9905032156" temperature=6865.81545587 pressure=7928.60281572 time_step=1.0000 time=1000.000000 energy=-248.451781 energy_soap=-340.11751805  energy_2b=89.34298787 energy_3b=2.32274878 energy_core_pot=0.00000000 energy_vdw=0.00000000 energy_exp=0.00000000 energy_xps=0.00000000 virial="-16.49619961          1.41031632      5.82798280      1.41031632    -30.68946941      5.93589914      5.82798280      5.93589914    -24.98320272" stress="0.01654329           -0.00141434     -0.00584462     -0.00141434      0.03077707     -0.00595284     -0.00584462     -0.00595284      0.02505452" volume=997.153669 step=1000
 H              0.52578652       3.50584178       6.19824403       0.08138286      -0.07931032       0.00667867       0.62380173       0.41690594      -0.22000262      -3.00409122 F F F
 H              0.98964488       4.14678536       2.22576052      -0.07507954       0.00946247       0.05795704      -1.57611391       2.13957861      -0.51313509      -2.89939070 F F F
 H              7.84032000       6.91676125       9.32588425       0.26893930      -0.01693873      -0.14209601      -0.19968316       0.71869309       1.32754466      -0.88265291 F F F
 H              1.04968645       5.17327413       2.63680313      -0.06135846      -0.06116677      -0.09989136      -0.28362477      -0.57659038      -0.00840791      -2.59804588 F F F
 H              2.38569022       9.15506310       4.85095896       0.00398803      -0.00316311      -0.05616754      -1.16198322      -0.91144509       2.24425284      -2.28062415 F F F
 H              8.71282818       4.03679611       0.11545859      -0.05099746      -0.06046151      -0.03596277       1.51775669       0.01320587      -0.34400489      -2.48686241 F F F
 H              6.32174145       3.85689952       1.00427870       0.10630516      -0.01113994      -0.09874241       0.64363032      -1.84688604      -0.40620607      -2.19756275 F F F
 H              6.06717851       2.68458784       1.62825352       0.01696718       0.03367392       0.04657446      -0.09779332       1.57766592      -0.52701772      -1.81816920 F F F
 H              8.03070631       4.93875966       4.76437771      -0.04980572      -0.02363818      -0.00733053       2.55771979       2.32185395       1.36903477      -2.99054634 F F F
 H              1.64580879       2.78323302       0.37820347       0.06662766       0.00027314      -0.10149003       0.31272738      -0.66059749      -0.47281566      -2.38291344 F F F
 H              9.10106129       6.00518817       1.24061370       0.01712160      -0.09146497       0.04863029      -0.91373657       0.56073954       1.08934476      -2.85497782 F F F
 H              1.09781936       4.03243990       6.12826319       0.05548469      -0.02324783      -0.02776558      -0.80418169      -0.42645150      -0.11072270      -3.03208559 F F F
 H              4.97118442       9.11936056       1.04383710       0.02551053       0.04872333       0.06677886      -0.57624613       1.27288701       0.93365290      -2.68729866 F F F
 H              1.23622465       6.42567232       4.99230271       0.07219057      -0.02504126      -0.04288610      -2.79496438       0.23378978       0.28388899      -2.67146118 F F F
 H              3.55349646       4.58034879       1.67598048      -0.01167398      -0.07886094      -0.03212277       0.98879619      -0.72193936       2.77956753      -2.82914343 F F F
 H              9.75723910       2.90242443       0.91537603      -0.09072323       0.12439313       0.05113409       0.29383720       0.88835164      -0.95827242      -2.00789302 F F F
 H              8.67494455       6.68102610       1.80103917      -0.02246615      -0.05501040      -0.06462605       0.52323395      -0.13269787      -2.18243370      -2.66001268 F F F
 H              2.66277455       2.25638927       4.74500195      -0.02960148       0.01981564      -0.00528545      -1.01825867       2.86940440      -3.23771307      -2.58048190 F F F
 H              3.45392622       4.80134353       1.05569812       0.00521271       0.01666083      -0.03074803      -0.18312579       1.25621455      -2.72620062      -3.03760991 F F F
 H              8.16003949       1.56727274       5.74849387      -0.03010341      -0.02911842       0.02251051       0.21237082      -0.26309849      -0.08437729      -1.46661393 F F F
 H              7.11289542       3.70150032       0.25294109       0.00102721      -0.06049644      -0.06168483      -0.67305078       0.53765243       1.19061504      -2.59237288 F F F
 H              2.42061610       2.86911000       3.95192295       0.07106270       0.01533371      -0.05632650       0.70024983      -2.31929186       3.13611843      -2.75873259 F F F
 H              0.69179198       3.61804501       8.83161721       0.11441793       0.08691258      -0.00327451       0.20626714      -0.35073802      -1.37480381      -3.81135829 F F F
 H              1.94890299       3.35107030       1.43292636       0.01942340      -0.02435569       0.06922854       5.93506552      -3.60058649       3.10262996      -2.76470177 F F F
 H              5.58494323       7.85323966       0.27227827      -0.33713351       0.23548334       0.08854477       0.22712540      -0.83696696      -0.20494398      -1.69908436 F F F
 C              0.23723304       1.27834203       7.09001961       0.01786351       0.03223727       0.01744437       4.12425591       0.56444262       2.11408961      -7.48506615 F F F
 C              0.74471055       8.46127977       6.86899297      -0.00431956      -0.00725800      -0.01241814       2.18670467       0.58398358       0.48170680      -8.68824008 F F F
 C              9.79046566       7.73216522       3.55759939      -0.00543610       0.00034144       0.01192382       0.22343613       0.97563576       4.44336997      -7.75195305 F F F
 C              1.16661343       3.75020444       1.01931498      -0.00205435       0.00757034      -0.00443600      -3.72037687       1.22590872      -2.15358802      -6.85145317 F F F
 C              1.42735074       9.61582267       9.36247337       0.02937267       0.00817625       0.00490053       1.31167291       3.48246699      -1.39141161      -4.76521202 F F F
 C              5.26301258       9.94032508       0.35161970      -0.02986778       0.00276429      -0.00012661       3.11923103      -2.52191414       0.38129198      -6.95067240 F F F
 C              3.00505686       0.35514821       9.47806222       0.02953979       0.02291855       0.00849131       1.29416845      -1.44272340      -0.30810946      -8.92974572 F F F
 C              0.94891827       0.79766802       8.58129889       0.01507462      -0.00967549       0.00860867      -1.64260720      -0.93797039      -1.30745513      -9.13231929 F F F
 C              8.86914104       5.85105748       5.24029067      -0.02991401      -0.01243432      -0.03635020      -0.42863678      -0.99163523      -1.84253267      -6.36761727 F F F
 C              8.17542161       8.19711261       1.79812365      -0.01618860      -0.00822841      -0.00530748       0.03281587       2.98541172       0.95226938      -6.62384433 F F F
 C              1.27492316       8.75157456       5.64542722      -0.00831862      -0.01166505      -0.03447339      -0.20606939       0.47732335      -2.20558942      -7.24032355 F F F
 C              9.19240977       0.47245124       6.95282543      -0.03322929       0.00264444      -0.00212854      -1.23086589      -2.05208591      -3.12100111      -5.08533351 F F F
 C              6.66633444       9.54958899       9.79286829       0.03049834       0.01262916       0.03446877       3.10373279       1.87406480       1.32396500      -7.75375438 F F F
 C              0.37205386       3.76439146       9.83973770      -0.02528141      -0.01887038       0.04757822      -3.31530347       0.84726772       3.29434085      -6.99503367 F F F
 C              7.50917065       0.65681156       9.03073400       0.00969501       0.00063842      -0.00348650      -1.90078225      -2.53888366       0.32735064      -7.82442088 F F F
 C              7.56949727       9.02639718       0.85931094      -0.00363865      -0.03016538      -0.02555085      -0.89386759      -1.37305178      -1.32027409      -9.16128945 F F F
 C              9.30913793       0.18941702       5.18788662      -0.03700160       0.01031012       0.00979687      -0.54997404      -1.56157792      -0.41597646      -8.55496869 F F F
 C              1.77716184       7.66192541       7.99509619       0.02086063       0.01992615       0.02069784      -1.64248171       1.36602209      -1.96781397      -6.44959724 F F F
 C              8.48661783       9.23385223       2.91070681       0.00434303       0.01362045      -0.02953789      -1.59118052      -5.20679688      -6.71310272      -8.38975009 F F F
 C              2.13017766       8.82059201       8.54482708       0.00798710      -0.00501868       0.01699791       1.06412242      -0.71715842      -0.10087696      -6.89546529 F F F
 C              8.61611328       9.75141436       4.01702341      -0.00233802      -0.01808216      -0.03158769       0.58863420       3.51005823       5.24816583      -5.99792906 F F F
 C              0.31478051       8.99824351       4.50161803      -0.01352756       0.02716048       0.00877385       0.16390277      -1.36556040       2.07144462      -8.48921188 F F F
 C              8.27130820       0.53403380       7.91331280       0.00553508       0.01733129       0.00999611      -0.74839491       0.14864269       0.79094716      -8.76931509 F F F
 C              9.88805527       6.65340308       5.05054988       0.03458527      -0.01081036       0.02846504       1.38285899      -0.57461972      -1.65622059      -7.27761014 F F F
 C              4.64952097       0.18822678       9.19427371      -0.00825995      -0.04163002      -0.00839807      -5.18481511       1.08309637      -1.01058197      -7.02696798 F F F
