      50
 Properties=species:S:1:pos:R:3:velocities:R:3:forces:R:3:local_energy:R:1:fix_atoms:S:3 Lattice="9.9905032156        0.0000000000    0.0000000000    0.0000000000    9.9905032156    0.0000000000    0.0000000000    0.0000000000    9.9905032156" temperature=3061423.57529517 pressure=**************** time_step=0.5000 time=0.000000 energy=-140.917816 energy_soap=-149.41161878  energy_2b=7.67247529 energy_3b=0.82132726 energy_core_pot=0.00000000 energy_vdw=0.00000000 energy_exp=0.00000000 energy_xps=0.00000000 virial="-41.35512934        -20.67426956     23.52649060    -20.67426956    -52.87928090    -26.46538523     23.52649060    -26.46538523    -24.01513565" stress="0.04147318            0.02073328     -0.02359365      0.02073328      0.05303022      0.02654093     -0.02359365      0.02654093      0.02408369" volume=997.153669 step=0
 H              9.31386603       3.58372033       3.80686329       0.34541831       0.33937379      -0.33543309      -0.36752459       0.75398126       0.92028688      -1.00719326 F F F
 H              6.03605213       6.77195969       7.27552276       1.65546619       0.97030596       0.75831604      -0.29290537       0.92247320      -0.01496789      -1.40817707 F F F
 H              6.94705705       4.26969428       4.00436421      -3.49201123      -0.97021051       2.79678410       0.37461629      -2.59186089      -0.21760942      -1.32407825 F F F
 H              9.45717568       4.70042597       7.94794736       4.63109373       2.25180842      -2.77415547       0.51269213      -2.52480573      -3.07375943      -2.54490142 F F F
 H              5.87779867       2.12925074       0.71705053      -1.92192822      -0.94487854       0.95492655      -1.11659539      -1.61587564      -6.63959846      -2.85081485 F F F
 H              7.70213177       2.47545848       7.57603164       0.42866544       0.97130175      -0.14774745      -1.97610290      -2.36051415       0.48931655      -1.68209795 F F F
 H              7.63300089       0.11047505       1.11663040       0.48545399       0.62462697       0.24909713      -0.74587489      -0.94571159       3.00632085      -1.95741781 F F F
 H              9.75655313       1.87817289       6.73265635      -0.44168253       0.05829737       0.55213234       0.40668075       0.22473703       0.70326812      -1.00102588 F F F
 H              1.69154837       5.93726165       6.91269113      -1.89368951       3.64626572      -1.27922879      -0.18017089      -0.18141134       0.81432915      -2.49937980 F F F
 H              3.02429654       3.51947549       4.48290523      -2.43961715      -2.67238662      -2.81446015      -0.28624837      -0.59674935       1.48693893      -1.24147342 F F F
 H              0.60010995       1.73940628       8.84108552      -0.90075775      -0.58527193      -2.07501149      -0.59488462       0.05026372      -0.93335226      -0.49124328 F F F
 H              6.72285913       9.05820348       1.48793031      -1.09087708       0.34075123       2.03896862       1.35513634       0.43609023      -0.76984565      -1.92617090 F F F
 H              9.73102030       0.25956404       3.02740208      -2.06514678      -0.25455935       1.17324807       0.75428124      -0.84152474      -2.23299232      -2.01914202 F F F
 H              3.29682586       7.13320502       4.18966164       0.25650229       0.28408497      -2.12224722       0.49302243      -0.33592808       0.85886008      -1.34951798 F F F
 H              4.09598149       7.76312754       7.50608158       1.88756076      -1.17095381      -2.93083674      -0.15887793       2.70059443      -0.37037607      -1.43469826 F F F
 H              4.76078620       6.58329529       4.58671215      -1.35932441      -0.92192174      -1.70143635      -1.33065205       0.90445880      -0.56876678      -2.11629752 F F F
 H              5.07444625       4.70749931       5.33452702       1.22207164      -4.33802055      -3.88033057       0.14804080       0.50377686       0.30432195      -2.52899161 F F F
 H              7.00582206       8.51305766       7.63254752       7.15095133       3.41632959      -4.16914422       0.62032037      -0.10918300       0.18368771      -1.34521446 F F F
 H              6.45838994       4.79090141       8.99724444      -0.42816612      -0.34204185       0.04339082      -0.22481428       0.42381559       1.96465286      -1.18701590 F F F
 H              9.35108888       3.91156464       7.13502385       0.26089633      -0.25090692       1.13137334       0.95375653       2.56520345       3.03856925      -2.68813756 F F F
 H              1.03957127       5.70859347       6.24368129       0.03286203      -0.61402837      -0.36961701      -0.29969200       0.17573928      -1.69763438      -2.24934424 F F F
 H              7.47138163       0.62225946       2.45521978      -0.59293601      -0.76096703       0.12999634       0.32190472       1.58066113      -1.27806346      -2.10954328 F F F
 H              6.60141194       7.06537332       2.21616605       0.45181339      -1.34062882       0.96857905       0.95889510      -1.26939872      -1.45855044      -2.54729097 F F F
 H              1.05559981       8.78511706       4.84381443      -2.64815162       0.56404269       2.24300970      -0.16625807       2.11085500       0.70119221      -1.60183690 F F F
 H              4.85906587       8.25343677       3.49806218       1.00923317       3.71456231      -4.01376371      -0.73682008       1.57498355       0.26728917      -1.46596697 F F F
 H              8.83325380       8.78372597       8.18241491      -0.76281757      -0.45667917      -1.04860522      -1.57450542      -0.44476429      -0.80856942      -0.75558448 F F F
 H              8.35057463       6.82856482       6.84455526       0.31222582       0.91794778      -1.72740597       0.37313514       1.14759489      -1.41665454      -1.34796461 F F F
 H              4.97018193       5.13804871       6.07794755      -3.11075643      -2.34471889       2.22514319       0.50428419       0.20224247      -0.47968726      -2.55963457 F F F
 H              3.55719858       9.26938346       7.14964895      -0.11505835       0.09411649       0.02970125       1.51121598      -2.20452606       1.78046461      -1.28538475 F F F
 H              5.88930531       1.97090550       4.20054267       0.45515866      -2.37906077      -1.50577791       2.88573604       1.31676814      -0.38279455      -2.21483850 F F F
 C              6.76001275       6.20822040       1.40191354      -0.05468230       0.19942244       0.47581245      -4.22882880      -2.75935852      -0.37587379      -5.88434529 F F F
 C              3.46718958       7.73036189       2.26100020      -0.39623695      -0.41031845       0.04020481      -0.06894247       1.08241478      -0.33492269      -8.51416682 F F F
 C              3.97149313       8.99098938       0.28757533      -0.20616542       0.05866568       0.25993413      41.56462887     -31.28899296      28.82038449       3.33647939 F F F
 C              3.60067866       8.91164452       3.70613671      -0.07343264       0.30218529      -0.03973477      -0.48112239      -2.97539245      -0.97129597      -5.35225908 F F F
 C              8.93490644       7.80850966       5.06806998      -0.03016099       0.08474962      -0.03470221       0.76595978      -0.70157335       1.93125386      -1.85897233 F F F
 C              7.32021901       2.29251791       4.15529809       0.02756823       0.06348462       0.35875248      -2.42402754       1.09560434      -3.34486248      -4.12440683 F F F
 C              3.46400108       7.83985317       0.61772228       0.47761823      -0.09703471       0.22765410      -4.20247623      -5.74471496       3.54007926      -8.53965521 F F F
 C              9.82147147       9.73587901       1.55193338       0.06622573       0.13628452       0.39376811      -2.41350433       0.18722387       2.28436169      -3.24059683 F F F
 C              2.22089370       1.34018128       4.06946256       0.03614573      -0.09954901       0.01521034      -2.22094675      -3.62727841       4.15910570      -4.79851903 F F F
 C              4.44378878       3.49562984       6.46396138      -0.20946983      -0.08743131       0.05813089      -0.91019263      -0.45677362      -0.54115589      -2.75867245 F F F
 C              1.13522417       7.41120280       0.34193713      -0.01485762       0.00892828       0.11446238       3.43748215       2.01435916       0.88787122      -1.34641159 F F F
 C              1.00317328       5.16810484       4.76965836       0.03342325       0.13244845      -0.16426532       0.07907500      -1.49289349      -0.63033159      -2.97045043 F F F
 C              6.51605584       1.23704741       7.86543650       0.27545654       0.18051880      -0.31623843       1.97912465       1.17878179      -0.08077523      -5.92000452 F F F
 C              5.34470229       0.83188744       8.19277030      -0.05205838      -0.08552795      -0.00119317      -1.58177142      -1.66104249      -0.00760759      -5.14206940 F F F
 C              6.05607008       2.36280259       1.65427691       0.12628530      -0.11983064      -0.16142104       3.21942337       2.23987571       8.92497762      -3.34180939 F F F
 C              1.53408568       0.52015726       5.14071486       0.04212372       0.06140996       0.03090680       2.22601990       0.87946677      -5.21068457      -5.48213728 F F F
 C              3.35913105       9.56083610       9.78599130       0.03750903       0.01911024      -0.11246662     -38.13924067      36.76431375     -34.46220714      -5.25511500 F F F
 C              6.20519580       4.92940679       0.94595007      -0.07033743       0.10934051       0.12564507       1.78205065       3.84879218       0.28746042      -6.23673466 F F F
 C              1.82825743       5.24429167       8.12473617      -0.03620522      -0.14934805       0.02414812      -1.71705796      -0.08734078       0.50157573      -2.81181438 F F F
 C              4.53709925       6.80738887       1.35769234       0.24642363      -0.12641308       0.18553676       1.21255563      -0.06745674       0.44637097      -7.93577664 F F F
      50
 Properties=species:S:1:pos:R:3:velocities:R:3:forces:R:3:local_energy:R:1:fix_atoms:S:3 Lattice="9.9905032156        0.0000000000    0.0000000000    0.0000000000    9.9905032156    0.0000000000    0.0000000000    0.0000000000    9.9905032156" temperature=2806816.57486271 pressure=**************** time_step=0.5000 time=10.000000 energy=-123.046451 energy_soap=-106.97810158  energy_2b=-15.34605116 energy_3b=-0.72229852 energy_core_pot=0.00000000 energy_vdw=0.00000000 energy_exp=0.00000000 energy_xps=0.00000000 virial="-25.25962750         -3.47362474     15.92761523     -3.47362474    -39.06074137    -35.80707071     15.92761523    -35.80707071    -33.82965956" stress="0.02533173            0.00348354     -0.01597308      0.00348354      0.03917224      0.03590928     -0.01597308      0.03590928      0.03392622" volume=997.153669 step=20
 H              9.11469426       1.00492643       7.43376622      -0.38869446      -0.84694060      -0.97116030      -0.14922698       1.43982705      -1.72290817      -1.16738116 F F F
 H              2.21358913       6.07976207       5.01434716       1.54646823       0.90182384       0.91845008       0.32448525       0.20297763      -1.61653744      -1.62767077 F F F
 H              1.86326439       4.81615178       1.80097334      -3.45841348      -0.88587478       2.72596566     -14.03899225      14.43559431       6.36657772      -2.44705225 F F F
 H              4.31396841       7.74640033       9.74656589       4.30347297       2.51535631      -2.93139786      -0.71368139       3.39055169       0.87420274      -1.46112579 F F F
 H              7.09098833       2.97086114       9.59463902      -1.82776844      -0.91362281       0.84426062      -0.58310790      -1.88044955      -0.60652699      -1.68984530 F F F
 H              1.82331452       1.86126786       6.24480917       0.37955357       0.92225068      -0.10543472       1.95348384       2.64713609       3.28234456      -0.92993347 F F F
 H              2.59323346       6.00712120       3.48819414       0.47619351       0.56751906       0.21075416      -2.16329621       1.30507214       0.77535285      -2.29440524 F F F
 H              5.09635753       3.55962839       1.28665658      -0.46959596       0.41483500       0.26583272       0.20912109       1.71207069       0.51038676      -0.74890620 F F F
 H              1.53332111       1.34191358       5.09322702      -2.02108747       3.44802931      -1.49822313     -71.99005505      35.91748977     -59.74292026       5.82676548 F F F
 H              9.29539753       7.27100670       7.32169273      -2.30066002      -2.55533527      -2.61794555       0.38015121       0.06375936       0.36489809      -0.44160588 F F F
 H              1.60396767       6.27435980       8.24049394      -0.88736291      -0.53991909      -1.98810457      -0.46761147      -0.32876039       3.33653775      -1.86000742 F F F
 H              7.67265883       1.88547606       2.73155609      -0.39108027      -0.04356427       2.48512653       0.00495325       0.32118488      -1.24500634      -0.47142638 F F F
 H              9.52423766       7.77921375       4.22888385      -1.95270771      -0.22190435       1.08352427      -0.31334030      -1.69269300      -1.52878839      -2.19721067 F F F
 H              2.04631670       2.80349753       1.91711123      -1.35234643      -0.56244460      -2.16643919       1.24348220      -2.09373911       1.43816214      -1.85859422 F F F
 H              1.65132705       6.42022301       9.74690687       0.86420377      -1.11186864      -1.98079132      -0.29575027       0.11952784      -2.36487731      -1.93890032 F F F
 H              3.99853778       9.13021529       0.39725454       1.17506192      -0.68539625      -2.95548108      -0.12051713      -2.18842242      -2.26276754      -1.65957997 F F F
 H              6.16630219       2.35441191       8.43659830       0.97823497      -4.05023703      -3.39013483       1.15052769       0.11173153      -0.34358430      -1.79981948 F F F
 H              6.59800031       1.72059640       7.19945863       6.59165432       3.33193844      -3.60469601       0.46095682       2.05526776       0.46576514      -1.86765162 F F F
 H              2.36908451       1.26743186       9.44520836      -0.40233538      -0.37177037      -0.01101358       0.37407919      -0.30469472      -1.92137467      -1.76753854 F F F
 H              1.22433182       1.90930229       8.31139802       0.08362776      -0.10902931       1.10207456       1.05373727       0.76313048      -0.58800470      -1.54654476 F F F
 H              2.18516878       9.87589677       2.31357819       0.16798660      -0.51406973      -0.48154379      -2.34020876      11.01703066     -18.53042510      -0.35215755 F F F
 H              4.44377738       6.55601949       4.83756971      -0.13986411      -0.23187164       0.29068142       1.05647119      -0.34159709      -0.12292523      -1.03880786 F F F
 H              2.20151033       4.46465994       1.63969360       0.64465403      -1.22138739       0.92586210      12.73550881     -13.24730077      -6.32555894      -1.09299035 F F F
 H              4.92986579       3.45953285       5.39634516      -2.54694075       0.36060127       1.87432402       0.07134806       1.47476016      -0.58649439      -1.08208377 F F F
 H              4.32111737       4.54740445       4.13948516       0.91223555       3.51834497      -3.82964995       1.27686369      -0.30440277       1.12772748      -1.48620726 F F F
 H              1.70349784       4.18919493       7.86608777      -0.28334547      -0.01202884      -1.04123486      18.35664940      33.58434506     -32.52002569       0.89078950 F F F
 H              0.73303601       3.91328501       6.73332078      -2.16711651      -0.36802035      -0.68285670      -0.52604213      -1.24431546       0.90725211      -1.76798144 F F F
 H              2.77522280       9.59630741       6.66981989      -3.23671071      -2.57433046       1.95280874      -0.27861488      -0.02614523       0.01942573      -1.92940949 F F F
 H              2.60288744       0.04370891       8.03367018      -0.07345620       0.05728954       0.13390939       1.20935264      -0.28998388       1.93090996      -2.44716251 F F F
 H              9.98631247       8.51581166       9.66850681       0.39253803      -2.28677080      -1.43179969       1.00049503      -1.24552825       0.83894579      -0.80774478 F F F
 C              6.30068707       8.10039490       5.84974387      -0.04326222       0.17861681       0.41852965      -0.86770821      -1.10546104      -0.58624105      -0.59402491 F F F
 C              9.43854087       4.22756193       3.06983070      -0.36091650      -0.29080676       0.10582299      -0.06911214       1.97836930      -0.59585940      -0.86819465 F F F
 C              2.25538061       9.38798150       2.98021309      -0.15239838       0.03592286       0.25696954       0.51722484      -8.99305682      20.96519480      -5.28465344 F F F
 C              2.99655224       1.85991091       3.11625513      -0.03817504       0.28173067      -0.08073108      -2.29218715      -1.70562906       1.72279709      -5.28961307 F F F
 C              0.34755016       9.69425546       4.22973529       0.15818939       0.20524881      -0.08507090       1.78216949       2.20893181       0.69738996      -6.99601737 F F F
 C              6.77544393       3.57437980       7.20498790      -0.13640895       0.20216935       0.24620796      -0.12913095      -3.46379694      -0.85046549      -3.90130762 F F F
 C              9.68897036       7.40786779       3.03230045       0.63634160      -0.04989468       0.25483037       4.54313719      -0.52582088       1.33841282      -5.02949705 F F F
 C              0.42918947       0.98973237       5.43390174       0.05601917       0.10255229       0.38407410       2.14966817      -2.14251151       0.69998437      -7.39289975 F F F
 C              2.48539448       0.26789926       4.31710269       0.01600477      -0.09784179       0.02607063      -1.79402012       2.54993751      -0.74867653      -8.92472444 F F F
 C              2.36641284       2.69828110       7.05062761      -0.22627922      -0.07046167       0.06097812      -1.02178070      -0.02506401       3.57169898      -7.41922186 F F F
 C              1.16229738       7.51332433       1.45676990       0.07688475       0.01058612       0.05099395      -0.91100154      -1.03937844       3.20479789      -5.21816144 F F F
 C              1.30767390       6.40387471       3.08356843       0.02408951       0.11551971      -0.17353134      -1.41858334       1.37731776      -1.82575630      -6.19277642 F F F
 C              8.75750322       2.34176142       5.86995625       0.15708592       0.05566761      -0.10891588       1.37062260      -2.79858395       1.44422636      -3.18987160 F F F
 C              4.77889251       9.96704124       8.20263264      -0.06528383      -0.08667838       0.00638258       8.66822004      -0.39408047      -0.10271159      -6.04588231 F F F
 C              7.30216244       1.07607991       0.17000672       0.12250491      -0.14345536      -0.13016202      -0.30814702       2.27204261       0.27251527      -2.13575152 F F F
 C              1.97316128       1.14432541       5.40399961       0.05302209       0.05334109       0.03586899      66.29866640     -39.38017442      48.96281404       0.54100035 F F F
 C              3.63531564       9.98963491       8.39491556       0.04715293       0.04572127      -0.16631324      -9.93517148       0.93711078       0.96873740      -7.17029391 F F F
 C              5.50754714       5.80880965       1.91702636      -0.06225370       0.04806207       0.06533023       3.36973749      -1.92277076       4.30843562      -2.52570998 F F F
 C              1.46181543       3.72413564       8.32721484      -0.06436000      -0.19192405       0.01741472     -16.61951503     -33.00784872      30.31071893      -2.31724410 F F F
 C              7.06090313       5.86412985       3.44106739       0.25478527      -0.06193760       0.23432442      -2.21431042      -0.19295722      -3.96777650      -2.02941669 F F F
      50
 Properties=species:S:1:pos:R:3:velocities:R:3:forces:R:3:local_energy:R:1:fix_atoms:S:3 Lattice="9.9905032156        0.0000000000    0.0000000000    0.0000000000    9.9905032156    0.0000000000    0.0000000000    0.0000000000    9.9905032156" temperature=2513995.59316420 pressure=**************** time_step=0.5000 time=20.000000 energy=-142.369621 energy_soap=-120.94700441  energy_2b=-23.04526863 energy_3b=1.62265211 energy_core_pot=0.00000000 energy_vdw=0.00000000 energy_exp=0.00000000 energy_xps=0.00000000 virial="-45.58819540         -1.08316623     -3.18379287     -1.08316623    -62.50847878     -1.40635887     -3.18379287     -1.40635887    -67.58910878" stress="0.04571832            0.00108626      0.00319288      0.00108626      0.06268691      0.00141037      0.00319288      0.00141037      0.06778204" volume=997.153669 step=40
 H              5.86672928       2.16313570       5.94519438      -0.32920977      -0.85921971      -1.12128569       0.20435586       0.21282248      -0.43717260      -2.38208903 F F F
 H              2.82486230       3.13708135       8.92834220       0.39239651       1.01832806       1.39139785      -1.60455313      -2.15317185      -0.20877431      -2.00525978 F F F
 H              8.01062919       7.03731770       8.20531949      -3.31191844      -0.69269379       2.52774819       1.14698827       1.59190707       2.60858437      -1.93467462 F F F
 H              5.79665283       3.32295123       3.12362510       4.03470930       2.40021305      -2.40910224       0.35280969      -2.31780780       0.64129922      -1.29782713 F F F
 H              9.34988220       3.81105337       7.87498530      -1.72249698      -0.91844407       0.80607101       0.35172104      -0.71572373      -1.28730906      -1.90439924 F F F
 H              5.52099984       0.99782122       4.72695630       0.34116951       0.87428510      -0.14090658      -9.73516145      -9.77403683       7.37792368      -2.65099384 F F F
 H              6.50241222       1.40686346       5.40427262       0.34869593       0.53293111       0.15465202       1.88171225       1.79291484      -0.29994157      -1.32914038 F F F
 H              0.57433473       7.87073488       3.92107106      -0.45183385       0.42717798       0.21873266       1.42794163       0.53151126      -0.19249693      -1.17987165 F F F
 H              0.35421701       5.98531281       8.93817810      -2.06447888       3.34879766      -1.55804922       0.57674925       0.06022412       2.87901157      -1.72337177 F F F
 H              6.62814249       2.19657774       1.76499333      -2.19481707      -2.46295963      -2.46553185      -1.44315641      -0.03155449       0.94577605      -1.09533422 F F F
 H              2.79894713       0.91194539       9.05736458      -0.85389528      -0.51124924      -1.85946144       2.29068645      -0.61951557      -0.45830508      -2.18332762 F F F
 H              4.14860551       1.40420306       6.99271616      -0.31581239      -0.04928970       2.35323078       3.95645244       3.33911090       4.44539408      -1.61332566 F F F
 H              1.50932963       4.80846510       2.06713540      -1.54025107      -0.51888754      -0.00301138       0.03320157       1.76222031      -0.24787351      -2.32040718 F F F
 H              8.91819817       7.08256314       0.62183758      -1.29349987      -0.78180548      -2.08514409       0.28499464       0.79053830      -1.40628617      -1.67822544 F F F
 H              0.72802519       6.01930846       0.36156410       1.01492198      -0.92302638      -1.89509802      -0.50078173       0.97776829      -1.54841176      -2.13072277 F F F
 H              4.60675904       1.94266232       0.49965550       0.98317540      -0.74016538      -2.92634166       1.37939879      -1.37645623      -0.82511005      -0.91607964 F F F
 H              6.62741717       5.84440496       4.51108515       1.11024336      -3.37376267      -3.26449794      -2.17695074       2.36181984       1.07016360      -1.60507319 F F F
 H              0.22873504       3.84154379       2.11141763       6.15465877       3.10905947      -3.40323503       2.71255232      -0.75042091       0.99977760      -1.95653130 F F F
 H              8.38796963       7.72386885       9.26764110      -0.40788935      -0.32546579      -0.03530221      -0.14824251      -1.25332320      -1.24875518      -2.06925206 F F F
 H              9.64127184       0.67255212       7.56254960      -0.76948788      -0.18201536       0.63847550      -0.02663858       0.17893580       0.55319787      -1.24352233 F F F
 H              3.20606001       5.00494639       7.59385981       0.11487390      -0.32335069      -0.48146712       0.64037692       0.98729376      -0.87502789      -3.42636187 F F F
 H              3.00450093       4.58372695       8.14885619      -0.15631170      -0.31412177       0.39360114      -0.22415056       0.09660061       1.34844479      -2.04625498 F F F
 H              6.90469992       0.73009778       8.63254493       1.52958561      -0.27717756       0.33563772      -1.32084019      -1.21024345       1.32848762      -1.88677043 F F F
 H              8.40456319       9.60704118       2.67648438      -3.17390168       1.09134147       1.38255287       0.15731042      -0.00871332      -0.03501055      -0.33626590 F F F
 H              2.59926477       9.43081104       7.30270971       0.64779272       3.54072825      -3.50699708       1.20293566      -1.43719190       0.22170690      -1.81230420 F F F
 H              8.81827254       3.56412192       6.67460658      -0.28210841      -0.17848816      -1.11826788       1.19894089       0.76665576      -0.39568958      -1.59961633 F F F
 H              9.51409453       0.42887178       0.11034350      -2.06614318      -0.32328056      -0.63380065       1.20793024       0.15169023      -0.48457520      -1.93594113 F F F
 H              1.51748997       4.07535509       5.23845642      -3.05929003      -2.48846752       1.78530680      -2.55736056      -1.97094838      -0.50012792      -1.62094110 F F F
 H              1.77324132       0.87261881       9.27753739      -0.09697607       0.09151007       0.12097316       1.09336923      -1.55334457       0.45888799      -1.89622295 F F F
 H              2.35406659       8.19781617       7.17883424      -1.51073170      -1.84181721      -1.13568079       0.84658715       2.51082921      -0.02521954      -2.07649201 F F F
 C              5.95410078       0.21351864       9.53963288      -0.04417536       0.20819177       0.34447953      -0.88766027      -0.92617159      -3.30082630      -4.27242743 F F F
 C              5.85778816       1.46137970       4.06814196      -0.34963354      -0.26159887       0.08823449       7.91830877       9.73390382      -8.60106604      -3.72045837 F F F
 C              1.59568743       9.15228431       5.31419181       0.01652223      -0.07608793       0.22208402       4.26409951       0.65523542      -3.50386794      -5.62268763 F F F
 C              1.90425625       3.81265204       2.34982878      -0.11118121       0.16028755      -0.07394599      -3.78533600      -3.63221293       2.79778201      -4.24811218 F F F
 C              1.88569934       1.70618880       3.44682271       0.14799522       0.19920455      -0.06799051      -1.85193766       4.01106760       3.68142814      -2.97971159 F F F
 C              5.45450302       5.51421527       9.59039012      -0.12848319       0.18574297       0.23024039      -0.62845771      -0.37866897      -0.16732918      -0.41840232 F F F
 C              5.90542872       7.04709308       5.56056155       0.60100086      -0.03225798       0.23822123       1.71461536      -2.95567926      -3.02507791      -2.06570089 F F F
 C              0.47577487       0.92749038       9.28826928      -0.12458817      -0.26191425       0.36722309      -1.77034534       2.89379387      -0.99861294      -7.49830142 F F F
 C              2.94950996       9.55621038       4.78043432       0.07141923      -0.05025423       0.06238661      -5.81072134       2.75481879       3.21610326      -5.81548502 F F F
 C              0.34667699       2.50065297       7.37090929      -0.16586586       0.05309240      -0.01614963       1.45368169       1.17858519      -0.01827588      -6.58991585 F F F
 C              2.12111938       8.32628003       1.38855519       0.15415661       0.11537473      -0.05183587      -2.59965184      -6.41821260       1.49862991      -3.00768542 F F F
 C              1.47919213       6.72998610       1.92020954       0.00679800      -0.04900866      -0.05121043       0.62506059       4.38565946      -2.42926686      -5.38441678 F F F
 C              0.36460222       2.81419059       4.80740904       0.16595847       0.04445026      -0.10077828       4.07521356       2.43812010       1.02362491      -4.17047308 F F F
 C              4.69503462       8.98804972       8.26204040       0.00995191      -0.09092491       0.00726114       0.77396767       4.97992042       1.83346911      -3.49298518 F F F
 C              8.46050550       9.65645293       8.88753841       0.10895804      -0.14409887      -0.12325373      -0.22592029       0.26268910       0.75727434      -6.26011609 F F F
 C              2.84442686       1.61351496       5.97969370       0.14166604       0.06074242       0.07579803      -2.05855124      -3.13568090      -1.88783790      -6.36198140 F F F
 C              3.68167080       0.58959025       6.72383122      -0.00499708       0.05948376      -0.16657286      -4.45231984      -4.73753493      -4.98414775      -6.17054830 F F F