      50
 Properties=species:S:1:pos:R:3:velocities:R:3:forces:R:3:local_energy:R:1:fix_atoms:S:3 Lattice="9.9905032156        0.0000000000    0.0000000000    0.0000000000    9.9905032156    0.0000000000    0.0000000000    0.0000000000    9.9905032156" temperature=6353.59664591 pressure=-16136.95023372 time_step=0.5000 time=0.000000 energy=-220.557025 energy_soap=-220.45281393  energy_2b=-3.40004781 energy_3b=3.29583690 energy_core_pot=0.00000000 energy_vdw=0.00000000 energy_exp=0.00000000 energy_xps=0.00000000 virial="-33.81953804         -0.67857661      5.19316692     -0.67857661    -43.43112174     11.64279663      5.19316692     11.64279663    -33.36304318" stress="0.03391607            0.00068051     -0.00520799      0.00068051      0.04355509     -0.01167603     -0.00520799     -0.01167603      0.03345828" volume=997.153669 step=0
 H              0.08986549       0.85924377       7.01993073      -0.01676070       0.04419798      -0.10356058      -0.47210352      -1.15829548       0.41137654      -2.96028780 F F F
 H              9.28006651       5.00223102       1.58366314       0.01471708      -0.10521480       0.10177807       0.10692391      -0.07714142      -0.23226954      -2.96560222 F F F
 H              7.66073476       3.40462960       5.82641972      -0.02234744       0.04820436      -0.01409697      -0.45291560      -0.13004601      -0.19391102      -2.90257389 F F F
 H              6.06844788       0.22624606       1.87128995      -0.14128475       0.16180736       0.01438527      -1.26465779       0.08645524      -0.28278734      -2.98568680 F F F
 H              8.26138702       9.87748260       2.10460287       0.02196557      -0.07023918      -0.12315667      -1.16988153       1.02207513       0.87307330      -1.51655899 F F F
 H              7.57372805       0.24889352       3.93256089      -0.03288009       0.00635451       0.06019829       1.43705590       1.45350256      -1.95293662      -2.47425288 F F F
 H              2.81969773       7.73977935       7.46450510       0.01075896       0.02060717      -0.09457860       0.54061219      -1.59324803      -1.93551927      -2.13957985 F F F
 H              1.82161838       3.25973160       2.90616802       0.12299887      -0.07059936       0.04435136       0.60341908      -0.12547607      -0.07142065      -2.90917935 F F F
 H              8.76459657       7.66045148       9.30265175      -0.05189131      -0.00976141       0.03675220       1.42631214      -0.84718938      -0.22174781      -1.86878792 F F F
 H              2.10170848       6.20565211       4.45964957      -0.00190447      -0.07076719       0.13084425      -0.14986881      -0.00787552       2.10967301      -0.99602498 F F F
 H              5.95144026       5.40831420       0.43035406       0.03626926       0.01835275      -0.05154564      -1.49407783      -1.38803188      -0.43807702      -2.88298207 F F F
 H              9.79377290       0.16961710       7.27680561      -0.00642969       0.22569497       0.00423575       0.56618502       0.99072557      -0.31677016      -2.96541036 F F F
 H              9.72643303       7.27495352       0.71015921      -0.06335390      -0.02409900       0.04861790      -3.69409790       0.98358459       5.88997214      -2.67444955 F F F
 H              9.32269578       4.83964743       0.84652680      -0.01625675      -0.08762909      -0.04704496      -0.21957081      -0.10314183      -0.11201678      -2.96996419 F F F
 H              7.90033226       2.95559512       6.37226066      -0.02084608       0.00240361       0.06034536      -0.39243129      -0.34290623       0.11855502      -2.70757305 F F F
 H              0.71285532       6.69610453       7.07887790      -0.06173901       0.01330542       0.02427557       1.78192829      -0.94437298       0.07750939      -1.47202941 F F F
 H              6.60326961       7.15935344       5.80743400       0.10462491      -0.03185654       0.09531441       0.22930801       0.35194765       1.59489727      -1.62666099 F F F
 H              0.21733672       8.89129090       4.05126929       0.16611202       0.02502527      -0.00685222       0.39363201       0.26885273      -0.98030746      -2.72077584 F F F
 H              0.67318216       6.28921741       9.48297984       0.07598973      -0.00192379      -0.04829469       0.61870491      -1.70738422      -0.47806060      -3.28075987 F F F
 H              5.36391089       9.93576584       1.49896536       0.01441132       0.00784245      -0.05572200       1.32895739       0.89163941       0.90724903      -2.74463621 F F F
 H              2.75105151       2.03454321       4.03248983      -0.04864201       0.10097097       0.10482578      -0.15384598       0.69370132      -0.76042745      -2.75704384 F F F
 H              9.55699279       4.21465785       6.55251816      -0.01402184       0.11878845      -0.06551758       2.54310262       2.16243926      -0.94365070      -2.17171487 F F F
 H              7.95133231       7.47068262       6.66093500      -0.00282303      -0.02385117      -0.02363547       0.27885129       1.41987711       0.27220085      -1.97012839 F F F
 H              4.10005890       8.43782185       6.69114037      -0.04891953      -0.20626914       0.04114955      -0.48212030      -1.34426573       0.29509570      -1.53303194 F F F
 H              6.97662300       3.29485269       0.00273063      -0.00966050      -0.10236921       0.10544116       1.95957188      -0.19688736      -2.20940654      -1.87361760 F F F
 H              5.38732516       4.80710111       0.29457283       0.01758148       0.09225855       0.10597503       1.45445308       1.51540756       0.40911352      -2.84609627 F F F
 H              5.91897900       8.63013346       0.18189841       0.00328987      -0.04905126       0.01486156      -1.12451089      -0.48715295      -0.93863601      -2.33807264 F F F
 H              0.93009458       8.20505106       8.52723865      -0.06347303       0.05441340       0.11952966      -0.51656887      -1.12814271       1.55838922      -1.72652897 F F F
 H              2.21223261       7.91336174       0.69633275       0.00031543       0.02286996       0.00298996       1.12034469      -0.80909555      -0.69707093      -2.15164622 F F F
 H              5.99534380       2.37427579       4.37141728       0.03359172       0.07471747      -0.10021424       1.23228269       1.47360417      -2.32229603      -2.13138624 F F F
 C              7.91960811       3.43983523       8.79098117      -0.00718263       0.00524188       0.00312220      -2.39749099       4.42854709       0.06965195      -6.39634688 F F F
 C              2.79821014       2.79367565       3.17260020      -0.00194723       0.01184901       0.00055904       1.56430367       0.09235388       0.53097015      -7.94529677 F F F
 C              7.76417460       2.18116951       2.61011700       0.01531426       0.02470195      -0.00074261      -2.35308019      -1.44960419       1.78371095      -8.89267274 F F F
 C              7.18880411       7.61414975       7.39880016      -0.00442225      -0.02787523       0.00647790      -4.03716601      -3.24665103       2.02386304      -7.73911260 F F F
 C              7.69604032       4.65396942       8.02925874       0.00875463       0.01302820      -0.00593658      -0.97202841       0.55803292       2.90065393      -7.09610755 F F F
 C              8.17766828       0.71482384       3.00054941       0.00269110       0.01609342      -0.02206158      -2.24675018      -0.32184024      -0.91807647      -7.17622930 F F F
 C              1.57942843       5.83900624       6.83574202       0.01600588       0.01612006       0.03106555      -0.93721113       2.52849467      -3.91528443      -7.90119446 F F F
 C              7.19534285       6.12208218       8.06334870      -0.02404125       0.00595768       0.00499041       1.15444839      -1.38556917      -1.34034590      -8.10541958 F F F
 C              5.38289411       8.61417392       9.12575939       0.02122691      -0.00676088      -0.03683883       1.80003770       0.42704309       1.65114483      -6.99870559 F F F
 C              9.49015358       0.87954301       2.91869667       0.00931024      -0.04931352       0.02457973       3.28637572      -1.58789970       1.39059963      -8.66386688 F F F
 C              1.02294368       9.58637864       1.62433989      -0.01663420       0.01781575       0.00723020      -0.71456357      -2.58640505       3.97106329      -5.42014532 F F F
 C              5.40606995       3.33947154       2.36793032       0.02655278      -0.03415280       0.01604506      -1.83880069      -0.60578594       1.50547586      -6.40513280 F F F
 C              0.52333773       5.14741285       6.00648662      -0.00255070      -0.01806908      -0.01486684       2.54273303       0.25044626       3.16103645      -6.81424946 F F F
 C              0.29775195       7.12451239       9.95943655      -0.03015420      -0.01292862       0.00196939       2.73847353       3.31312275      -6.05358840      -6.99955347 F F F
 C              6.38289291       3.01224107       3.28695430      -0.00594922      -0.00995768       0.02344140       1.38218393      -3.25116796       0.26397685      -7.78436738 F F F
 C              6.12941534       8.31438058       8.13150272      -0.02194430       0.00154221      -0.03070774       3.36052818      -1.94414737      -3.49079709      -7.81504435 F F F
 C              1.74854789       8.51809138       1.38802549       0.04981928       0.02251010      -0.01149719      -2.12137284       0.83663292      -1.09112399      -8.20921349 F F F
 C              4.02701724       3.10933252       2.70423999      -0.03835415      -0.00507350      -0.01150530       0.22804599       0.37757604      -0.61541357      -8.66661753 F F F
 C              2.96882316       6.75336689       6.59407806      -0.03371972       0.00224834      -0.00901642      -5.18935506      -0.83605193       1.40592359      -6.66994034 F F F
 C              0.59151227       9.31532377       3.09177383       0.03727590       0.01153349      -0.00840335      -1.28430505       3.47971400      -2.66323371      -7.59476515 F F F
      50
 Properties=species:S:1:pos:R:3:velocities:R:3:forces:R:3:local_energy:R:1:fix_atoms:S:3 Lattice="9.9905032156        0.0000000000    0.0000000000    0.0000000000    9.9905032156    0.0000000000    0.0000000000    0.0000000000    9.9905032156" temperature=6530.54387142 pressure=24899.43232639 time_step=0.5000 time=10.000000 energy=-225.247661 energy_soap=-225.05884976  energy_2b=-8.51595932 energy_3b=8.32714759 energy_core_pot=0.00000000 energy_vdw=0.00000000 energy_exp=0.00000000 energy_xps=0.00000000 virial="-19.60419060         17.37006563     -2.88126086     17.37006563    -11.12188261      5.10795906     -2.88126086      5.10795906     -5.50912581" stress="0.01966015           -0.01741965      0.00288949     -0.01741965      0.01115363     -0.00512254      0.00288949     -0.00512254      0.00552485" volume=997.153669 step=20
 H              9.83678532       1.57112484       6.46465250      -0.05142615       0.09073752       0.04094323       0.10743078      -1.92427415      -1.56009963      -2.93992253 F F F
 H              9.48958054       3.77325384       1.72592328       0.03630344      -0.13201664       0.02553378      -1.27779170       1.15202834      -2.37980011      -2.73932691 F F F
 H              7.50413117       3.52269873       5.92353376      -0.00925308       0.01826837      -0.00635135       0.14020173      -0.90335602       1.84414007      -2.74492478 F F F
 H              4.84170911       1.28898844       1.61118171      -0.04519379       0.01432995      -0.07142923       1.16977468      -0.97723527      -0.20455849      -2.43476097 F F F
 H              8.08737311       9.89197741       1.66885152      -0.03393206       0.09200640       0.04924615       0.01467102       2.50287768       1.99406749      -1.90310596 F F F
 H              7.59654978       0.58587588       3.54022112      -0.06551872      -0.01747644      -0.01028949      -2.27211884      -1.86198857       2.12943005      -1.46439093 F F F
 H              2.45843061       7.96190302       6.30431403      -0.07441009      -0.01143239      -0.12200091       0.29868474      -2.85579104       0.31269539      -2.81442689 F F F
 H              1.39637568       3.23502476       2.75561985      -0.00287166      -0.01185662      -0.01638117       2.83981456      -0.78783031       0.78812989      -1.95576606 F F F
 H              8.97645604       7.08648740       9.52687670       0.11498420      -0.12157411      -0.01740469       0.17170138      -1.17315690      -2.52320777      -3.31261335 F F F
 H              2.20945446       5.80220905       5.99839950       0.04394299      -0.01254855       0.08715714       0.87704342      -1.05360792      -3.89649375      -0.43938768 F F F
 H              5.94290539       5.43181687       0.29828066      -0.04029580      -0.00001663       0.07765033       0.24475729      -0.03429232       0.29671142      -2.97795614 F F F
 H              9.81067416       2.09594767       6.89234762       0.02415496       0.16715093      -0.12942918      -0.13457620       2.03386293       1.58952580      -2.94700181 F F F
 H              9.63852344       6.93995179       1.01376448       0.10574913      -0.07926551      -0.06506547       1.18081536      -2.30223779      -0.26309919      -2.83311912 F F F
 H              9.03499209       4.13520003       1.01256759      -0.04456716      -0.05413305      -0.01717045       1.52358516      -0.98495203       1.89903592      -2.83687612 F F F
 H              7.45965391       3.10418445       6.66687693      -0.04175389      -0.00569327       0.05029207       0.25090084       0.84745720      -1.59568714      -2.57846531 F F F
 H              0.81574703       6.42412648       7.39119904      -0.01868866      -0.00833865       0.09063740      -3.25784716       1.58624574       2.65812954      -1.60284144 F F F
 H              7.14313536       6.81762372       6.45237229      -0.01195235      -0.08046761      -0.09421089      -0.86233031       0.36789033      -0.43632084      -1.28504569 F F F
 H              1.73987676       9.17015808       3.75444866       0.09592401       0.04847723      -0.08996739      -1.86074180       0.44461593      -1.00181359      -2.17884857 F F F
 H              0.83832508       6.58015750       9.63526716      -0.06299129       0.06858148       0.07299407       1.04190066      -0.87566613      -0.71031199      -3.70750089 F F F
 H              5.55952880       0.96363195       1.57588176      -0.02938391       0.20246680       0.06186435      -0.86583309       0.17899696      -0.06921563      -2.84275003 F F F
 H              2.60492735       3.17818156       4.34521811       0.01507793       0.10211082      -0.04282187       0.03379887      -0.45323460       0.04907538      -2.60704434 F F F
 H              9.17562989       5.64685850       5.79902954      -0.03739139       0.13846631      -0.06461827       2.34894593      -0.58839952       0.56895540      -1.78230051 F F F
 H              8.13761574       7.94886556       7.03063048       0.00850730       0.09159874       0.11930950      -1.32948822      -0.71303898       1.58548375      -1.88999700 F F F
 H              3.60366170       5.82538477       6.92028365      -0.07148636      -0.26367759      -0.00138504      -0.30031405       1.81594121      -0.17557884      -1.86861906 F F F
 H              7.47818808       2.55621650       0.18314448       0.07899918      -0.02029986      -0.05548751       0.22358209       1.51638566      -1.54622808      -1.49561069 F F F
 H              5.93590626       5.76548888       0.97811293       0.09369426       0.07726980      -0.02051325      -0.05294708      -0.29978423      -0.42888304      -2.93285920 F F F
 H              5.46221203       8.11619892       9.87923208      -0.07010312      -0.04490591      -0.01369218      -0.15810317       0.17002906       0.34545505      -2.70025051 F F F
 H              0.06449779       8.04610724       0.38922719      -0.06247033      -0.00285437       0.18977076       1.58099897       3.07890900      -1.26536334      -2.44028250 F F F
 H              2.54524680       8.01663195       0.62812957       0.02769274       0.05103150       0.03367986      -0.05469220       0.63170121       0.59112848      -2.86416616 F F F
 H              6.23232848       2.50510818       4.86739660       0.02601428      -0.00095270       0.03471080       0.27129625       0.59406984      -3.54286044      -1.72983615 F F F
 C              7.78355608       3.64442905       8.82773654      -0.01683952       0.03070739       0.00448220      -0.20166016       0.89597235       0.73436832      -7.22974823 F F F
 C              2.82201634       2.85651274       3.32163537      -0.01198959       0.00904838       0.02508967      -1.62342632       2.34556283      -1.84979310      -7.81361096 F F F
 C              7.81354763       2.36540185       2.66403824      -0.00288551       0.01093109       0.00932172      -0.84393823      -2.01738233       0.51185797      -8.51119837 F F F
 C              7.04942375       7.25227769       7.49242672      -0.01447257      -0.03363200       0.01070519       2.18897796       1.88070146      -4.51285895      -8.29831745 F F F
 C              7.72634617       4.78503574       8.09258649      -0.00404341       0.01177970       0.01795584      -2.11517678      -0.15329783       2.83599331      -7.15554159 F F F
 C              8.19057339       0.89331563       2.76852090       0.01060448       0.02154237      -0.03037730       3.13530860      -0.09120776      -2.67023105      -8.75981333 F F F
 C              1.64516290       6.03302659       7.00240662      -0.00790448       0.01049479       0.00552296      -4.49248316      -4.72984304      -2.20776555      -7.48271312 F F F
 C              7.03105406       6.09184847       8.09652193      -0.00724046      -0.01680660       0.00528597       2.21988846      -4.46031456       1.27929948      -8.62969156 F F F
 C              5.60023807       8.57043402       8.89930076       0.02125429      -0.00368131      -0.01904354       0.17712163      -0.30679972      -2.03019230      -7.64183667 F F F
 C              9.65227901       0.31608139       3.18270060       0.01753493      -0.05775925       0.02441054      -0.75634574       1.21774355      -0.80809555      -9.89144978 F F F
 C              0.92661145       9.61229612       1.75001431       0.00327639      -0.01029894       0.00087177       3.87364269      -2.31553740      -7.62515464      -6.17013790 F F F
 C              5.52460167       3.01406938       2.51295813      -0.00908643      -0.02783194       0.00979214      -5.04640460       1.65833990       0.27189692      -7.96637797 F F F
 C              0.68110522       5.03848103       5.98175500       0.02590026      -0.00556138       0.00751180      -1.04120264       1.18973956       2.10031745      -7.65295246 F F F
 C              9.98387072       7.09942320       9.92700950      -0.04007720       0.00386579       0.00403264      -3.47968212       1.40004905       5.20875664      -7.50753871 F F F
 C              6.47324961       2.87153487       3.34350163       0.02452895      -0.02110878       0.00269303       2.55262907      -1.84312523       1.67634994      -6.85856513 F F F
 C              6.06414796       8.26227753       7.67898488       0.00062336      -0.00624816      -0.04788723      -0.86212622       1.04549286       2.60830666      -7.23717238 F F F
 C              2.10784431       8.81065053       1.26297316       0.02339474       0.03262112      -0.01445378      -3.01783949       1.17108865      -0.22298042      -8.13819313 F F F
 C              3.85135472       3.07121124       2.53412762       0.00747678      -0.00351632      -0.02199286       2.60387868      -0.75117005       1.00263905      -7.74621651 F F F
 C              2.54584852       6.71271314       6.53704001      -0.03212442      -0.00080398      -0.00307208       5.55815711       4.25803918       0.48237848      -8.15059253 F F F
 C              0.88039542       9.56241833       2.95572480       0.02070153       0.03145071       0.00111411      -0.72243862       0.47378320       8.16246560      -5.55599640 F F F
      50
 Properties=species:S:1:pos:R:3:velocities:R:3:forces:R:3:local_energy:R:1:fix_atoms:S:3 Lattice="9.9905032156        0.0000000000    0.0000000000    0.0000000000    9.9905032156    0.0000000000    0.0000000000    0.0000000000    9.9905032156" temperature=5354.39041148 pressure=34099.32400891 time_step=0.5000 time=20.000000 energy=-220.223767 energy_soap=-223.07270341  energy_2b=-4.92268390 energy_3b=7.77162025 energy_core_pot=0.00000000 energy_vdw=0.00000000 energy_exp=0.00000000 energy_xps=0.00000000 virial="-9.72457980          -5.88131543    -10.44213810     -5.88131543     11.05653572    -10.46888745    -10.44213810    -10.46888745     -5.49092931" stress="0.00975234            0.00589810      0.01047194      0.00589810     -0.01108810      0.01049877      0.01047194      0.01049877      0.00550660" volume=997.153669 step=40
 H              9.64503842       3.07832400       6.54649054       0.01582714       0.22322151      -0.00513032      -0.74288850      -0.97523110       2.57849169      -2.79717587 F F F
 H              9.64649072       2.75748384       1.37093470       0.03730235      -0.09455006      -0.03682569      -1.89595928       2.98153148      -0.64042854      -2.58803998 F F F
 H              7.45236639       3.56176492       6.22244150      -0.02017810       0.00821327       0.02639119      -1.71495029      -1.04467058       1.57573052      -2.85904137 F F F
 H              4.69619763       1.16762851       0.88064359       0.00154630      -0.00407055      -0.05784508       0.32785575       0.95128145       0.65760914      -1.71666581 F F F
 H              7.62519978       0.77327054       1.28830966      -0.02534738       0.04605416      -0.10445031       1.47951773       0.56407067       2.17443859      -1.73582978 F F F
 H              7.43523220       0.35263536       3.27379110       0.06982046      -0.00339971      -0.06337465       1.91631447       0.74420486      -1.08720180      -1.62397306 F F F
 H              2.01997820       7.10141407       5.39041205      -0.01907051      -0.07208062      -0.07852212       0.88523592       0.95861372       0.80658878      -2.17976151 F F F
 H              1.90085525       2.65893130       2.77054227      -0.07757641      -0.10890646      -0.04707162      -0.02765233       0.31207072       1.50404841      -2.71790611 F F F
 H              9.20339143       6.06099085       8.91174008       0.01257563      -0.04443096      -0.01455494      -0.20631359       0.65403381       0.63970158      -1.47728463 F F F
 H              3.23242529       5.38179702       5.92331944       0.14976828      -0.03088703       0.00462719      -0.66575232       0.62427741       0.87487138      -1.37667960 F F F
 H              6.01776157       5.78230659       1.07414316       0.06061172       0.08253091       0.07546892      -0.29087475      -0.19349818       0.24007959      -2.94723248 F F F
 H              9.90362937       3.28814669       5.96280194       0.00677642       0.05351098      -0.07182009       1.42205215       0.80802969      -2.36607601      -2.64315675 F F F
 H              0.16927682       5.77820680       0.69639996      -0.01833577      -0.03360936      -0.05959908      -1.53578385       2.90303508      -0.55023234      -2.00451472 F F F
 H              9.03065021       3.46610830       1.28841266       0.00244159      -0.04771994       0.00878521       2.30635092      -2.35321451      -0.15668625      -2.61488320 F F F
 H              7.05896629       3.15923654       6.89136022      -0.04391080      -0.00220982       0.02024197       0.71749226       0.90265767      -2.13463826      -2.60874616 F F F
 H              1.00549111       6.12883678       7.95768598       0.08720022      -0.05978122       0.00349329      -0.44750569       0.49879230       2.82488228      -1.43260404 F F F
 H              6.97498213       6.57985430       6.13787966      -0.00082527       0.04514306       0.06184221       0.62172655       1.70906096       2.44509252      -1.63938036 F F F
 H              2.13523952       9.77944083       3.24709652       0.02263273       0.07375526       0.04753557       0.02034500       0.39579693       2.08230988      -1.55343109 F F F
 H              0.94263275       7.31540654       9.84536261      -0.07047485       0.12507968       0.03804944      -3.05865866       0.56095298       1.05179871      -2.73511825 F F F
 H              5.10970819       2.28113124       1.66987795      -0.02436472      -0.03211772      -0.11194405       1.19362584      -3.00368823      -1.07965436      -1.22188994 F F F
 H              2.77633215       3.89794727       4.19876581       0.00912914       0.00115364      -0.03759885      -0.90008564      -1.35579294      -0.55824089      -2.97068906 F F F
 H              9.73046230       6.59697978       5.56325126       0.13261229       0.04683551       0.02116733       1.29700507      -1.02210496       0.91513477      -1.18836019 F F F
 H              7.69488708       8.09253540       8.34184092      -0.05762242      -0.05991519       0.10184883       0.54215346      -1.03484176      -0.82596897      -0.29564390 F F F
 H              2.78925708       3.68671883       6.93619295      -0.11127264      -0.15499006      -0.01614506      -0.72732906       1.39595820      -0.56060465      -0.98607222 F F F
 H              8.23368408       3.09698823       8.81412192       0.12235345      -0.02028335      -0.15251938       2.34693673      -4.41903873       1.21199916      -1.79698525 F F F
 H              6.47004380       6.07228670       0.58926872       0.00507816      -0.02426449      -0.05803173       0.39560825       0.14449457      -0.63500653      -2.98381184 F F F
 H              5.06952321       7.99445633       9.23434029      -0.01345001      -0.00795506      -0.07695098      -0.86597714      -1.25472116       1.76265727      -2.46574671 F F F
 H              9.38943579       7.79035712       1.04260419      -0.07515029      -0.09308325      -0.02615943      -0.36232906      -0.10588779       0.35293307      -3.17394206 F F F
 H              2.97829156       8.35214399       0.90769028       0.02213200       0.06519783       0.03901499      -0.66402395       1.60525836       0.18605551      -2.67386691 F F F
 H              6.38648810       2.63639195       4.33761074      -0.05561342       0.00539214       0.13105615      -0.07551160      -0.08351898       1.64749514      -1.55071873 F F F
 C              7.63894276       3.85827831       8.94864187      -0.01278555       0.00850618       0.02092717       0.48888560      -6.02165053       3.82156984      -9.77808605 F F F
 C              2.75534962       3.03163441       3.42628818       0.01481536       0.02711119       0.00375170       3.75830867       0.65147061      -3.94539697      -7.31443138 F F F
 C              7.79567128       2.39109129       2.78486095       0.00300813      -0.00561712       0.01370211       2.96133755      -2.35296214      -1.16836243      -6.75749539 F F F
 C              6.94915038       7.02918999       7.42374882      -0.01098062      -0.01215950      -0.02046721      -1.21588969       1.35926283      -3.57775282      -9.75605197 F F F
 C              7.62159945       4.87911389       8.34905413      -0.01144706       0.00397987       0.03011552       1.24698405       0.20997912      -0.00962329      -4.62449196 F F F
 C              8.32212086       1.09077075       2.59961502       0.01100874       0.01577873      -0.00482130      -1.83074861      -3.21954485      -0.30903560      -9.24081990 F F F
 C              1.32395056       5.99706723       7.03077500      -0.04555292      -0.01164510      -0.00401694       1.59758690      -0.92658772      -5.56260022      -7.16887809 F F F
 C              6.99868229       5.87497026       8.15810183      -0.00868005      -0.00639314       0.00091105      -3.82989836       8.15372450      -2.52878603      -8.47952322 F F F
 C              5.78099306       8.50608466       8.66061568       0.01373812      -0.00610203      -0.03079447      -0.13670033       1.55751943      -3.03371898      -7.98851401 F F F
 C              9.74944374       9.82168778       3.39530480       0.00398407      -0.03965145       0.01818579       0.61747699       1.81308749      -0.83336639      -7.44050379 F F F
 C              1.08444405       9.44217258       1.56689177       0.02175185      -0.01864969      -0.02261489      -2.02243076       1.37518356       2.77690014      -7.03013170 F F F
 C              5.31648410       2.80399026       2.66928981      -0.02784668      -0.01149484       0.02379373      -1.95701990       1.46959860      -0.57229289      -8.83883954 F F F
 C              0.90130822       5.07427208       6.15746991       0.01903320       0.01199551       0.02630044      -0.07702147       0.84506760       1.09870382      -9.23236417 F F F
 C              9.68395567       7.18656326       0.17885099      -0.01272401       0.00068832       0.03400625       5.39999710      -3.41638377      -0.32840266      -6.77928645 F F F
 C              6.72549729       2.64584569       3.35476575       0.02039280      -0.01853367      -0.01842941      -5.67061867       1.98402104      -0.39413410      -8.87221277 F F F
 C              6.04887441       8.20941185       7.33180977      -0.00140318      -0.00646630      -0.02303088       0.38361257      -0.22703358       1.89560103      -6.55112253 F F F
 C              2.21213299       9.18896934       1.11374210       0.00703714       0.03498414      -0.02035876       3.13664397      -2.93733228      -2.64882841      -8.03786307 F F F