50
Lattice="9.9905032156 0.0 0.0 0.0 9.9905032156 0.0 0.0 0.0 9.9905032156" Properties=species:S:1:pos:R:3:local_energy:R:1:hirshfeld_v:R:1:forces:R:3 energy_soap=-239.63712878 energy_2b=7.80088915 energy_3b=-0.5036049 energy_core_pot=0.0 energy_vdw=0.0 energy_exp=0.0 energy_xps=0.0 virial="-13.61135673 7.95050963 -0.97050386 7.95050963 -8.18305412 -9.00292673 -0.97050386 -9.00292673 -1.66133246" volume=997.153669 config_type=iter_6 energy=-232.339845 stress="0.01365021 -0.0079732 0.00097327 -0.0079732 0.00820641 0.00902863 0.00097327 0.00902863 0.00166607" pbc="T T T"
H        3.52790552       9.37859446       6.25634941      -2.77975922       0.83088035       0.91426776       0.08585760       1.12299865
H        7.46099119       3.23195794       1.06828625      -2.17856948       0.91621417      -0.30137408       0.33678077       0.10022320
H        8.60060840       7.48448513       0.85902497      -3.61512008       0.65636348       0.64923816       0.72077645      -0.71866225
H        3.80847744       6.46637097       0.68142201      -2.49523194       0.85524537      -0.68994254       1.18550062       1.02914206
H        6.07832630       4.83967189       7.26993133      -3.23071991       0.62654134      -0.19648901      -0.26857478       0.94869388
H        2.46088781       6.27372452       5.06370167      -1.29785333       0.85552218       0.50366472       1.02753558       0.29516817
H        1.01977102       2.27420076       2.31308282      -3.52068991       0.68694051      -0.64721582      -2.35245292      -1.65549020
H        4.69606372       4.66829537       1.05065459      -3.68347604       0.74728085      -0.55796663       0.25165027      -1.25676475
H        6.07854808       4.18562838       2.21640224      -2.78865086       0.68766779       0.15595988      -1.07068453      -0.77473781
H        2.61563389       3.97551192       8.83605310      -2.35276121       0.68645580       0.60414784      -0.31794957      -1.65550936
H        2.02057985       8.72479399       2.39915607      -3.16565519       0.77399637       0.25843167      -1.55845916      -4.39813435
H        3.84244631       2.54528664       4.27223631      -3.37111288       0.70497745       2.36718037      -4.10633391      -0.53771933
H        5.53587531       2.54990277       2.58264927      -2.96996420       0.81320851      -0.53270514      -2.34695934       0.69878403
H        5.11430779       8.80384416       7.50007397      -2.99131811       0.71731395       1.37079860      -1.45643471      -0.09627062
H        5.99681116       4.58888000       7.97696580      -3.36303502       0.64105677       0.17024289       0.32229971      -0.97272547
H        7.09214670       1.45330378       4.21412586      -3.96181574       0.71081530       2.50257722       0.13522160       3.25999820
H        8.75992113       1.80679905       7.97904303      -3.39073493       0.57709252      -0.78860343      -1.71643351       0.39563186
H        6.30378692       3.47860293       1.67563630      -2.29141273       0.76558288       0.25899112       2.21679805       0.76807594
H        8.36513153       6.98424672       1.27496877      -2.91607904       0.60777709      -0.57400832      -0.61165702       0.73447044
H        3.05741393       5.72269381       7.57604829      -2.90129583       0.78918230       0.02587105       0.08963724      -2.50780973
H        2.78765991       4.97014602       9.96386948      -3.16838448       0.71789105      -1.77003116       1.17437624      -0.05807978
H        9.08096083       2.40946989       7.90744415      -2.96464839       0.54333381       0.75626893       1.46340644      -0.13819397
H        3.36258718       7.72903695       5.17681427      -3.01005645       0.76208725      -0.48830905      -0.78603713       0.00805277
H        7.06868690       1.92509643       1.08386626      -3.50825661       0.80590060       1.09512803      -2.23994725      -0.43663374
H        2.07470896       8.48840006       1.41268951      -2.55015263       0.78997682      -0.18136560       0.99987630       4.25543162
C        2.95948896       0.35548367       3.94981922      -7.25393791       0.86599980       5.77082336       5.91716508      -1.08969719
C        1.85926860       8.92516772       5.00071465      -4.33682711       0.97447655      -3.60597176      -3.08179378       1.14982068
C        8.75094546       0.20425323       0.57331699      -5.89454501       0.87976777       0.36972417       5.30007630       7.25964056
C        4.71939425       6.97454106       1.18039732      -6.74010371       0.85394659      -0.80304894      -1.44962963      -0.62286806
C        1.04194928       0.95082634       2.03601568      -6.61456460       0.86813860      -1.56976556       1.34226004       1.88265022
C        3.38885990       5.45968992       9.16073370      -6.48171854       0.88065429       4.74648670      -4.42156288       2.35792092
C        5.16197865       7.51959625       2.31153760      -6.56985916       0.86869578      -1.30121537      -0.98641308      -3.91297000
C        1.94451525       0.91784656       3.33266263      -6.96924311       0.86220626      -2.22216809      -1.17882698      -3.76262684
C        4.59606892       5.45067767       0.22704636      -6.76792813       0.91432296       0.12082457       2.16805875       0.53067647
C        8.79655358       9.60940136       9.49690173      -4.95326877       0.95396982      -0.45336219      -4.83757901      -8.73093890
C        3.78922898       4.88987195       7.81042050      -5.41143329       0.94278452      -2.59228286       1.61542649       2.92155809
C        6.93750293       9.46902059       1.02920677      -6.17988384       0.89368268      -2.19341556       1.25896426      -0.98880229
C        5.56567851       7.54268679       3.64580068      -6.70640435       0.86968807      -0.52026114       0.60770826       6.17046610
C        5.37812947       9.27638266       1.49043061      -6.30642060       0.93550589       4.47750190       1.15535207       3.14542191
C        4.65955252       8.74220716       3.32946778      -6.08477342       0.92396485       3.12062527      -1.62288739      -5.24155063
C        4.50408222       8.84687884       5.85919534      -6.22404638       0.90461797      -0.24915293      -0.19553533      -1.13628866
C        5.62191566       1.29056611       3.01925532      -6.30168136       0.88525456      -6.67357923       2.45811680       0.83135946
C        5.51512828       7.87540014       6.47758423      -5.94611478       0.93021254      -2.21447381       1.71280120      -2.56434041
C        0.01476797       0.39079996       1.24777548      -7.20654896       0.85711554       4.15062756       3.46606266       3.75810908
C        5.73215970       7.72093668       4.99022401      -7.05283512       0.88220508       0.54763812      -0.24529002       2.30369186
C        6.64858221       9.24791756       2.45833191      -6.29033842       0.92744501      -4.05112099      -0.68187969       1.01324054
C        6.82666724       1.65408027       3.26287621      -5.14304269       0.85810964       0.83789807      -0.47812697      -2.11889135
C        7.37444104       0.78963409       1.02298977      -7.44699256       0.84544472       1.03091517      -0.16621657      -1.00044244
C        3.08094646       9.33001858       4.90796716      -6.49079941       0.87717739       1.32324209      -1.89672530       1.67220381
C        4.43593103       1.24421178       4.00079759      -6.49977908       0.90298939      -2.95124602       3.06268166      -2.23728239
50
Lattice="9.9905032156 0.0 0.0 0.0 9.9905032156 0.0 0.0 0.0 9.9905032156" Properties=species:S:1:pos:R:3:local_energy:R:1:hirshfeld_v:R:1:forces:R:3 energy_soap=-253.40667501 energy_2b=13.98833064 energy_3b=-0.4923819 energy_core_pot=0.0 energy_vdw=0.0 energy_exp=0.0 energy_xps=0.0 virial="-32.57522968 2.59027964 -9.67814288 2.59027964 -20.99337123 3.04894392 -9.67814288 3.04894392 -22.36425387" volume=997.153669 config_type=iter_6 energy=-239.910726 stress="0.03266821 -0.00259767 0.00970577 -0.00259767 0.0210533 -0.00305765 0.00970577 -0.00305765 0.02242809" pbc="T T T"
H        5.77630441       0.13269879       5.90211574      -2.36915348       0.64705025      -0.16116692      -0.41045856      -0.38512905
H        8.00926782       1.10234096       3.74351798      -3.31224258       0.73498074      -2.92355392       2.78566175      -1.90775156
H        8.35372153       7.11094205       0.28754781      -3.08909196       0.65469333      -0.17905032      -0.15920713      -0.30999597
H        3.64036813       5.49904331       1.43802249      -3.06822899       0.74909914      -0.10131663      -0.96434136      -2.06321865
H        6.40560451       3.52032472       8.24875113      -2.98436750       0.63621370      -1.20168261       2.12542724       0.80651813
H        4.30623938       6.67268461       5.96044360      -2.93697834       0.67529357       1.72085625       1.48094481       0.03126460
H        2.97680825       0.65695164       1.42752203      -2.82740615       0.61118376      -0.99634469       0.36839967      -0.07207603
H        4.70039588       4.41793963       9.71460694      -2.61490613       0.82831976      -0.76280567      -0.97676325       0.84797473
H        5.67439402       4.99343956       1.89832350      -3.35544552       0.65908268       1.50156528       1.09677842      -0.62386667
H        9.83997726       4.60052849       0.68184275      -0.28396943       0.94214243      -0.01867981       0.08073934      -0.19735404
H        2.42677732       7.56553406       2.30862534      -2.58110950       0.70054956       0.18213188       0.26988615       0.10003205
H        5.04333117       1.65352817       4.75779516      -3.71874369       0.75156738      -2.79881832       0.09442242      -1.53977158
H        6.98047165       2.62395857       2.17363666      -3.51031034       0.73323986       0.62760993      -2.56170567       1.60448627
H        4.23156014       8.25826446       7.26647892      -2.94696520       0.71059879       2.28341315      -0.26786451      -1.07455914
H        5.97860494       4.20671424       8.57684969      -3.05994074       0.68198784       1.66487615      -2.42460534      -1.35606745
H        6.84940571       2.94465457       3.94376873      -3.15692878       0.69417864       0.41486086      -3.04868474      -1.29638099
H        8.71954984       2.20695546       8.87413016      -3.04623047       0.65315279       1.29647702      -1.13169104       0.06932425
H        5.37797969       4.50120254       2.28672520      -2.87776235       0.63218778      -0.85818734      -1.41183957       1.14932440
H        8.11665131       7.76806347       9.95675219      -3.36630825       0.69495915       0.60419437      -0.37189548      -0.06395560
H        4.84693764       5.71829924       7.12063785      -3.57215421       0.74444499      -3.02292796      -2.41367216       1.90352248
H        2.55346181       4.92601003       8.96241589      -3.59844471       0.67641183      -0.52054678      -0.45716511       2.07050018
H        9.23462162       1.59695886       8.83027275      -3.41397885       0.66748778      -0.95520906       1.66741390      -0.41615279
H        2.12097167       6.96986063       2.66973666      -3.02947069       0.62541155       0.11402278      -0.30120251      -0.09544141
H        6.92303062       0.89568792       0.05943931      -4.35889497       0.70914635      -0.02821461       0.29209730       0.72313008
H        2.00379376       8.87687251       2.70454641      -2.87880169       0.69858224      -0.17574815      -0.11765519       0.49570560
C        3.27504749       0.51501443       3.84995005      -7.81729104       0.87881803      -7.02025246      -3.08524628      -0.95761601
C        1.66165070       8.98842633       4.82815981      -4.38103856       0.98325579       0.83825818       0.85498870       0.39139526
C        8.80911420       0.60788824       0.80498435      -7.19141785       0.87488131       4.56656940      -1.72625163      -0.84754846
C        4.55138870       6.78050994       1.13859011      -6.21904747       0.86593998       0.35998166      -1.72340882      -0.70280173
C        1.26916763       0.72043269       2.08119833      -5.78808115       0.85714818      -3.66362800       0.94617073      -5.04367566
C        3.70889348       4.98174123       9.11298552      -6.68707824       0.84889649      -1.44597934       0.54210726       1.23808925
C        5.26430113       7.58607858       2.02365628      -7.46371740       0.88000512       0.55521204       1.03330221      -0.76078208
C        1.85861678       0.79034019       3.13230050      -6.28075923       0.88481835       6.86195574      -0.56412627       5.94853957
C        4.22511990       5.64470875       0.30741052      -7.17825218       0.87935471      -0.83347494       3.48596337       4.64389838
C        8.79817230       9.47710869       9.77095870      -4.36440778       0.96386543       0.47985261       0.66411823       0.47396292
C        4.01715881       5.00282718       7.86465612      -5.65713844       0.85678732       5.35119154       2.59051117      -6.03579234
C        6.50297755       9.53254802       1.58076244      -7.28148334       0.88747430       0.25603002       1.17520641      -0.69611989
C        6.02209878       7.78560239       3.44827659      -7.58385004       0.90304148      -0.59284309       2.12738690      -0.43269511
C        5.41541520       8.75768532       1.02811436      -5.92594466       0.93529335       1.95109593      -0.47020895       3.39576630
C        4.38944567       9.09943312       3.76367366      -6.56108004       0.93463084      -1.77131300      -0.57238198       2.67242283
C        4.15627991       8.80759340       5.50304382      -6.47584163       0.88408194      -0.03188453       2.58759059      -3.21401689
C        5.62498853       1.00891613       3.21943402      -6.67142229       0.88807332       3.55726395      -1.14491941      -0.40642210
C        5.10088712       8.02137410       6.08770759      -5.89113113       0.91253809      -4.50246671      -2.54642154      -1.92649446
C        0.01565721       0.91846813       1.43738179      -7.88169720       0.85651941       1.27295317      -1.03805103       0.53556731
C        6.04820220       7.25256851       4.73842558      -5.86291337       0.94643298      -1.12680147       3.24352339      -1.35021801
C        6.62027061       9.50466601       2.98586616      -6.69837290       0.92365601      -3.98195346      -1.57909910       0.11221017
C        6.95304889       1.82021669       3.11177515      -7.01025940       0.86984961      -1.60470414       2.91143292       2.97077787
C        7.46991141       0.72918843       1.00044733      -7.44377556       0.84823745      -5.46196201      -2.39871821      -0.15840558
C        2.86088479       9.52843780       5.13753786      -7.28850391       0.89009304       1.22850698      -2.38583378      -0.17695842
C        4.32430670       1.28297315       3.76380282      -6.34838696       0.86099836       9.05263707       3.82934573       1.92685503
50
Lattice="9.9905032156 0.0 0.0 0.0 9.9905032156 0.0 0.0 0.0 9.9905032156" Properties=species:S:1:pos:R:3:local_energy:R:1:hirshfeld_v:R:1:forces:R:3 energy_soap=-241.72508413 energy_2b=5.13324792 energy_3b=0.74155634 energy_core_pot=0.0 energy_vdw=0.0 energy_exp=0.0 energy_xps=0.0 virial="-15.72409797 6.62335351 -1.08913267 6.62335351 -17.49613625 -14.04821505 -1.08913267 -14.04821505 -16.09752738" volume=997.153669 config_type=iter_6 energy=-235.85028 stress="0.01576898 -0.00664226 0.00109224 -0.00664226 0.01754608 0.01408832 0.00109224 0.01408832 0.01614348" pbc="T T T"
H        6.99198929       9.40767905       5.00106041      -3.07534946       0.63642729      -1.28885661       0.31508817      -1.72915295
H        7.15287878       2.07414072       4.71685238      -2.83461168       0.67297589      -0.86438114       1.05590956      -1.12862581
H        7.76290490       7.44409848       8.99002749      -3.19017266       0.67604719       1.84657240      -2.34404265       0.83651119
H        2.62566322       3.73407630       0.80972027      -2.07717085       0.74863129       0.23507487       0.17546411      -0.05749165
H        6.71627085       2.76505353       8.80300160      -2.65040417       0.71237867       2.03182096      -0.63190008      -2.05109056
H        6.55149981       6.00285970       4.15366553      -3.24715194       0.79114043      -1.84893917       4.42075055       2.53853282
H        0.78418788       9.90879120       1.18240192      -3.22979524       0.87282319       2.49771298      -0.62164957      -1.05874586
H        3.69103496       3.77496307       9.24049714      -3.63753145       0.67633259      -0.40817503      -2.16727157       0.66491789
H        6.32684101       4.70405391       2.73050767      -2.73729313       0.68513831      -0.84778860       2.76770396      -0.30977855
H        7.62846406       5.89319759       1.62504130      -1.36844916       0.86396673      -0.28758174       0.62172916      -0.27151338
H        1.53192924       5.53155142       1.63046028      -2.95862530       0.67479710      -0.53488850       0.47936383       0.51943808
H        4.27406067       2.04179263       4.96371792      -3.82477350       0.73613975       1.50446330       0.26994148      -0.81332085
H        7.84055552       1.67598006       3.13795009      -3.39870464       0.77192166       2.76830194       2.16896463      -1.76378714
H        5.49290124       7.37644187       6.19907806      -3.73169372       0.71220010      -1.80211722      -0.06727965       2.21358149
H        7.48583745       2.51545650       8.28119135      -2.49046854       0.73526808      -3.05379863       0.95930582       1.18695763
H        6.58406280       3.22828632       3.12057647      -3.56718425       0.78895130      -0.25356041      -0.64113900      -0.53716829
H        9.73828518       2.49934793       9.02386221      -2.40893237       0.82169791      -3.06827205      -0.03585090       2.41964224
H        6.16451610       5.55436896       2.76443552      -3.18979865       0.81553728       0.30406779      -3.01423661      -0.49737420
H        8.26892613       6.76224252       9.17255921      -2.96016365       0.65486475      -1.70713419       2.41841638      -0.59649585
H        5.32465085       4.36241701       7.97450202      -3.58378384       0.72818919       0.69206175       0.32470934      -1.67341902
H        2.94580252       5.66669709       8.92301354      -2.63322583       0.80801993      -0.95979819       0.91342983       1.03098946
H        8.78885428       2.51170599       9.59525690      -2.58808904       0.82406035       4.33506367      -0.18192842      -1.97145866
H        2.12864563       6.01666651       1.41787433      -3.01584745       0.72138627      -0.83849772      -0.17048976       0.21648903
H        6.93982996       1.16244428       0.26361977      -4.30482469       0.71990739      -0.35917794      -0.59057128       0.30746272
H        9.55661601       9.25187876       2.24815736      -2.61347636       0.55052966      -0.74332271      -0.70152039       0.56544902
C        3.08560800       0.96414807       4.12189298      -7.73549488       0.89463666      -3.25326200      -3.27196929      -4.42068427
C        1.55151805       9.07196714       4.73396186      -4.47356651       1.00296774       1.12675913       1.80781012       0.98060093
C        9.09766723       0.75440376       1.01797450      -5.69717530       0.86169138      -7.01485939      -5.70050561      -4.33297949
C        4.58786847       6.40589456       1.18703978      -6.79062764       0.86305890      -5.50857887      -3.39601750      -2.12154783
C        1.45518332       0.51860698       1.84585960      -6.67550142       0.84675784      -4.29026518      -0.65746771      -3.32021777
C        4.03320882       4.74163095       9.37005835      -7.09788458       0.88906561      -1.36168852       3.20352377      -1.34718529
C        5.27718253       7.38303978       1.69265032      -6.43183016       0.87180452       2.54650938       3.16623414      -0.06019797
C        2.09643501       0.56039708       2.87907584      -6.92116231       0.85336561       6.87134229       2.50978035       7.85094551
C        3.35759973       5.76441055       0.38269146      -6.46830648       0.90087606       6.73622072      -0.00325051       0.41362699
C        8.89288595       9.54203188       0.27688452      -5.43930005       0.94685979      -2.47656844       2.32971723       1.06844318
C        4.46186600       5.09551616       8.01507687      -4.76477486       0.94968641       0.98192931      -0.83681017       2.83647793
C        6.55149721       9.82159264       1.88343903      -6.36051968       0.86671989      -4.67694073      -0.56002346       3.49827029
C        6.19510233       8.06404842       3.25657779      -6.48411679       0.88252813      -1.44019591      -1.57460346       1.03815956
C        5.72277959       8.44191933       0.92361702      -5.81139458       0.94071458       0.91215872       1.22396707       3.16502688
C        4.34335153       9.17940824       3.94745254      -6.87951530       0.93269058       2.56410424       2.04798618      -2.07303953
C        3.93575024       8.82527801       5.27804277      -6.34643476       0.88591819      -1.55604044       2.15082361      -2.49735327
C        6.33124702       0.89978600       3.14885736      -6.29047021       0.87177337      -3.47296000      -2.87601627      -3.35625067
C        4.80640989       7.87795862       5.50357483      -6.94425235       0.83776763       5.10677920      -3.79224759      -0.08466024
C        0.10599480       1.26595701       1.49365890      -6.25625705       0.89526865       6.23484167       4.89512440       3.85665142
C        6.01635563       7.25708625       4.39001873      -6.22085540       0.87707233      -0.00325021      -2.31542804      -2.47632824
C        6.11580898       9.47418967       3.57324701      -7.00988693       0.87676704      -0.54732786       0.16872446       1.12149763
C        6.89117745       2.18949168       3.13988542      -6.97857264       0.82072360       1.22300451      -4.75747956       5.09613332
C        7.19710623       0.31012004       0.91140459      -6.86210415       0.83710958       6.03788265       2.69312003      -3.95935088
C        2.57842327       9.94625182       5.13158689      -7.64813350       0.90776299       0.47616214      -1.88923143      -0.91679359
C        4.40496678       1.42321951       3.94697796      -5.94462074       0.89872717      -2.56460622      -0.28865769       2.00020660
50
Lattice="9.9905032156 0.0 0.0 0.0 9.9905032156 0.0 0.0 0.0 9.9905032156" Properties=species:S:1:pos:R:3:local_energy:R:1:hirshfeld_v:R:1:forces:R:3 energy_soap=-240.59078479 energy_2b=6.86409153 energy_3b=1.90553157 energy_core_pot=0.0 energy_vdw=0.0 energy_exp=0.0 energy_xps=0.0 virial="0.45465469 -2.93511414 -12.33050182 -2.93511414 -32.25179002 -2.82918888 -12.33050182 -2.82918888 -9.95472001" volume=997.153669 config_type=iter_6 energy=-231.821162 stress="-0.00045595 0.00294349 0.0123657 0.00294349 0.03234385 0.00283726 0.0123657 0.00283726 0.00998314" pbc="T T T"
H        8.15748440       9.16346848       4.21512259      -1.95044311       0.84641408      -0.55834888      -0.79977212      -1.64108139
H        6.30233204       4.92463582       4.36906634      -2.53963203       0.85374247       1.67462401      -1.02330267      -2.74828618
H        8.49066050       6.79632706       8.76333225      -2.91999458       0.65123642      -1.96993599       1.52569992      -0.78216107
H        2.96152244       2.72189140       9.13428857      -2.54964727       0.83718770       0.41976429       0.92188347       1.22027864
H        6.78603624       1.97957731       7.61191830      -3.04812288       0.56950961       0.05757310       0.12615592      -0.27797863
H        6.41820295       7.30540912       5.42900226      -3.01621730       0.83001605      -1.46288743      -0.04684992      -1.55360222
H        2.08694163       9.68256495       1.23088737      -3.62952906       0.70750212      -0.51805180      -1.16120823      -1.39196502
H        3.34134372       3.50362605       9.70926706      -3.03488164       0.80243872       0.19726162      -0.69277637      -2.10539427
H        6.91965120       4.40165559       3.47339677      -2.41860623       0.87168082      -2.02176473       1.42034341       2.81813254
H        6.05812983       6.16121780       1.89385151      -3.57892662       0.71310060      -0.79135225       2.47046275      -0.63824573
H        1.12123298       4.83264528       1.02791004      -3.04767524       0.64003196       1.04460598       1.20854372       0.02364705
H        5.02739622       2.04651778       3.62081102      -4.29270891       0.72045868      -2.06389633      -0.07330290       2.51650145
H        7.88174263       2.60753526       3.66654069      -3.74285989       0.70335099       0.67254981      -0.79486268       0.37841880
H        6.10190969       5.68560929       6.78033709      -1.84790409       0.80442571       0.14914684      -0.08955222       0.15648844
H        6.19706219       2.13795828       8.04349201      -3.07127215       0.59075272      -0.32208164       0.46578377      -0.18721045
H        6.52325531       2.19081554       2.31567278      -2.94311369       0.83582591       1.12280881       1.04908639       1.30532878
H        0.30623232       2.68494233       0.27560951      -2.69827840       0.78089122       1.39981721      -1.23969546       0.22101816
H        7.96950291       7.02766332       1.17254924      -1.98205150       0.78006006      -0.21390679       0.44469527       0.32221536
H        7.82729435       7.31265899       8.59393861      -3.05621782       0.66171428       1.98322385      -1.52751281       0.43910216
H        4.62358709       5.45714207       7.83401210      -3.15210584       0.78689145       1.47935177      -0.80511722       0.65335098
H        2.67245525       6.35573479       0.68813273      -2.88918471       0.76127824      -2.60551711      -0.10477749      -0.51420049
H        1.51852225       3.22166615       9.70177859      -1.65859479       0.84767138      -1.26710577      -0.75410544      -0.32362298
H        0.54229787       4.39427003       1.13504486      -2.46700024       0.61372883      -1.32342876      -0.10250146       0.72245905
H        6.87954696       1.01811365       0.08916606      -4.13840230       0.69192561       0.92721909      -1.98830014      -0.09923584
H        7.81438482       8.39936242       3.08015881      -2.69826058       0.70437996      -0.45006089       1.02899825       1.50765098
C        2.98280567       1.05615718       4.03215527      -6.64256968       0.88536470      -0.71532412       1.66112941      -1.34556197
C        1.48569068       9.34259041       4.69985716      -4.74754513       0.99802320       1.31039590       0.20183416       2.08899027
C        9.10057296       1.04690370       1.30742356      -6.76201655       0.89472703       1.50835998      -2.49599933      -0.07416351
C        4.17244991       6.17314618       1.04917298      -6.34313680       0.86019107       7.59405633       6.31005914       4.74842600
C        1.31257867       0.35655777       1.61414486      -7.82926709       0.82764347       6.23454942       1.81262251       4.86193727
C        3.89866124       4.87982841       9.32079931      -6.61244311       0.86066950       0.97133229      -3.06607480       0.13159383
C        5.40042051       7.26243091       1.41043961      -6.24209498       0.87923152      -0.46983501      -4.21749453       0.07065809
C        2.38296424       0.66250593       2.74897906      -6.16450563       0.86310474      -2.80491598       1.56328811      -2.89479582
C        3.37581301       5.67882191       0.23348565      -6.84741861       0.79984068      -2.28989148       0.76705627      -1.09957990
C        8.58043356       9.58253916       0.84024745      -6.16460959       0.91311426       1.20890036       3.52431821       0.23560261
C        5.15516333       4.79363988       8.77900105      -5.87388900       0.95657244      -2.33401555       0.74544010      -2.62634696
C        6.54507307       0.12009512       1.90998209      -6.93699895       0.86299363      -0.13621556      -3.54403667      -3.79243304
C        5.94426373       8.13225729       3.17897029      -7.06734290       0.89655562       1.57084906       1.12606493       0.86361591
C        6.16191553       8.35629355       1.12395761      -5.84107108       0.89862160      -0.90573491      -0.18383060       2.38844651
C        4.29245060       9.66695231       3.87876570      -7.16010493       0.89007947       0.23485068      -0.57855714       3.26279495
C        3.87271000       8.75304091       5.03412890      -5.58281074       0.95981378       0.76788817      -2.01001331      -0.88136532
C        6.43739143       0.88367656       2.94985298      -6.33381538       0.86936307       0.32460599      -2.55697884       3.70185262
C        5.00788663       7.27753921       5.12943878      -5.82793898       0.95418947      -2.03905557       2.14068456       0.89290875
C        0.42765307       1.29592605       1.44620550      -6.13938379       0.85964766      -3.23962321       0.29929408      -2.02902371
C        5.86390925       7.06452549       4.14737649      -5.77742899       0.88818448       0.30296000       1.57661184       0.31159931
C        5.60214138       9.48413337       3.91621600      -6.65085730       0.89459696       5.51760574       0.61069955      -5.63497303
C        6.96941839       2.03653218       3.52529816      -6.45843665       0.86306230      -1.84803577      -0.87237211      -3.18033858
C        7.35471018       0.01885189       0.60500535      -6.52172252       0.86405535      -3.40539935       1.45934814       2.30041551
C        2.44255211       0.28033061       4.95834915      -7.11367106       0.89470422      -4.88623126      -4.12697000       1.74461127